title                   = NVT equilibration
define                  = -DPOSRES -DPOSRES_LIG
integrator              = md
nsteps                  = {NVT_STEPS}
dt                      = {TIMESTEP_PS}
nstxout-compressed      = 5000
nstenergy               = 1000
nstlog                  = 1000
continuation            = no
constraint_algorithm    = lincs
constraints             = h-bonds
lincs_iter              = 1
lincs_order             = 4
cutoff-scheme           = Verlet
nstlist                 = 20
rlist                   = 1.2
coulombtype             = PME
rcoulomb                = 1.2
vdwtype                 = Cut-off
vdw-modifier            = Force-switch
rvdw-switch             = 1.0
rvdw                    = 1.2
tcoupl                  = V-rescale
tc-grps                 = Protein Non-Protein
tau_t                   = 0.1 0.1
ref_t                   = {TEMPERATURE_K} {TEMPERATURE_K}
pcoupl                  = no
pbc                     = xyz
DispCorr                = EnerPres
gen_vel                 = yes
gen_temp                = {TEMPERATURE_K}
gen_seed                = -1
