; ligand_GMX.top created by acpype (v: 2023.10.27) on Thu Aug 20 19:31:22 2026

[ defaults ]
; nbfunc        comb-rule       gen-pairs       fudgeLJ fudgeQQ
1               2               yes             0.5     0.8333333333

; Include ligand_GMX.itp topology
#include "ligand_GMX.itp"

; Ligand position restraints
#ifdef POSRES_LIG
#include "posre_ligand.itp"
#endif

[ system ]
 ligand

[ molecules ]
; Compound        nmols
 ligand           1     
