ligand_GMX.gro created by acpype (v: 2023.10.27) on Thu Aug 20 19:31:22 2026
 77
    1  UNK   O1    1  -0.049   0.776   0.548
    1  UNK   O2    2  -0.349   1.035   0.692
    1  UNK   O3    3   0.139   0.504   0.546
    1  UNK   O4    4  -0.090   0.307   0.081
    1  UNK   O5    5  -0.072   0.157   0.530
    1  UNK   O6    6   0.031  -0.033   0.477
    1  UNK   N7    7  -0.212   0.870   0.760
    1  UNK   N8    8   0.125   0.480   0.322
    1  UNK   N9    9  -0.131   0.566   0.581
    1  UNK  N10   10  -0.008   0.241   0.282
    1  UNK  N11   11  -0.451   0.698   0.642
    1  UNK  N12   12  -0.381  -0.114   0.521
    1  UNK  N13   13  -0.329  -0.029   0.731
    1  UNK  N14   14  -0.409  -0.246   0.706
    1  UNK  C15   15  -0.158   0.733   0.759
    1  UNK  C16   16  -0.034   0.735   0.850
    1  UNK  C17   17   0.054   0.462   0.194
    1  UNK  C18   18  -0.011   0.880   0.892
    1  UNK  C19   19  -0.123   0.963   0.830
    1  UNK  C20   20   0.165   0.460   0.086
    1  UNK  C21   21   0.294   0.501   0.154
    1  UNK  C22   22   0.269   0.492   0.304
    1  UNK  C23   23  -0.110   0.694   0.618
    1  UNK  C24   24  -0.333   0.915   0.718
    1  UNK  C25   25  -0.459   0.824   0.719
    1  UNK  C26   26   0.070   0.495   0.445
    1  UNK  C27   27  -0.023   0.329   0.182
    1  UNK  C28   28  -0.084   0.505   0.457
    1  UNK  C29   29  -0.515   0.808   0.864
    1  UNK  C30   30  -0.048   0.103   0.299
    1  UNK  C31   31  -0.444   0.703   0.952
    1  UNK  C32   32  -0.668   0.788   0.870
    1  UNK  C33   33  -0.191   0.074   0.244
    1  UNK  C34   34  -0.270  -0.040   0.312
    1  UNK  C35   35  -0.030   0.072   0.448
    1  UNK  C36   36  -0.354   0.002   0.435
    1  UNK  C37   37  -0.374  -0.128   0.653
    1  UNK  H38   38  -0.231   0.659   0.795
    1  UNK  H39   39  -0.051   0.672   0.937
    1  UNK  H40   40   0.056   0.696   0.801
    1  UNK  H41   41  -0.012   0.547   0.176
    1  UNK  H42   42   0.088   0.918   0.863
    1  UNK  H43   43  -0.016   0.887   1.001
    1  UNK  H44   44  -0.081   1.035   0.758
    1  UNK  H45   45  -0.177   1.020   0.906
    1  UNK  H46   46   0.180   0.361   0.043
    1  UNK  H47   47   0.139   0.526   0.003
    1  UNK  H48   48   0.312   0.605   0.128
    1  UNK  H49   49   0.380   0.443   0.122
    1  UNK  H50   50   0.310   0.579   0.356
    1  UNK  H51   51   0.317   0.403   0.344
    1  UNK  H52   52  -0.534   0.884   0.665
    1  UNK  H53   53  -0.125   0.563   0.374
    1  UNK  H54   54  -0.128   0.406   0.451
    1  UNK  H55   55  -0.500   0.905   0.913
    1  UNK  H56   56  -0.178   0.504   0.645
    1  UNK  H57   57   0.046   0.274   0.361
    1  UNK  H58   58   0.023   0.042   0.245
    1  UNK  H59   59  -0.447   0.604   0.908
    1  UNK  H60   60  -0.341   0.731   0.973
    1  UNK  H61   61  -0.493   0.695   1.050
    1  UNK  H62   62  -0.698   0.687   0.842
    1  UNK  H63   63  -0.705   0.803   0.973
    1  UNK  H64   64  -0.720   0.858   0.806
    1  UNK  H65   65  -0.441   0.712   0.542
    1  UNK  H66   66  -0.375   0.638   0.672
    1  UNK  H67   67  -0.181   0.048   0.140
    1  UNK  H68   68  -0.249   0.166   0.242
    1  UNK  H69   69  -0.204  -0.123   0.335
    1  UNK  H70   70  -0.340  -0.080   0.238
    1  UNK  H71   71  -0.449   0.044   0.402
    1  UNK  H72   72  -0.305   0.079   0.494
    1  UNK  H73   73  -0.326  -0.038   0.832
    1  UNK  H74   74  -0.293   0.056   0.689
    1  UNK  H75   75  -0.440  -0.321   0.645
    1  UNK  H76   76  -0.397  -0.266   0.804
    1  UNK  H77   77  -0.404  -0.198   0.463
   22.00000    27.11600    20.93600
