/home/nanomd/Desktop/Sakthidhas
    77
  -0.4870000   7.7620000   5.4840000  -3.4940000  10.3520000   6.9170000
   1.3900000   5.0370000   5.4630000  -0.8970000   3.0680000   0.8130000
  -0.7230000   1.5660000   5.2990000   0.3120000  -0.3310000   4.7740000
  -2.1150000   8.7010000   7.6030000   1.2510000   4.8000000   3.2230000
  -1.3050000   5.6620000   5.8080000  -0.0760000   2.4130000   2.8220000
  -4.5070000   6.9840000   6.4230000  -3.8090000  -1.1390000   5.2050000
  -3.2880000  -0.2870000   7.3130000  -4.0900000  -2.4580000   7.0550000
  -1.5810000   7.3250000   7.5880000  -0.3380000   7.3500000   8.4980000
   0.5440000   4.6230000   1.9380000  -0.1060000   8.8010000   8.9170000
  -1.2270000   9.6310000   8.2950000   1.6450000   4.6020000   0.8560000
   2.9370000   5.0130000   1.5370000   2.6920000   4.9200000   3.0360000
  -1.0980000   6.9390000   6.1770000  -3.3270000   9.1530000   7.1810000
  -4.5900000   8.2430000   7.1870000   0.6970000   4.9500000   4.4510000
  -0.2260000   3.2870000   1.8180000  -0.8420000   5.0510000   4.5690000
  -5.1520000   8.0800000   8.6390000  -0.4830000   1.0260000   2.9860000
  -4.4440000   7.0340000   9.5240000  -6.6800000   7.8760000   8.7020000
  -1.9110000   0.7440000   2.4450000  -2.7040000  -0.3980000   3.1190000
  -0.2970000   0.7210000   4.4780000  -3.5420000   0.0180000   4.3520000
  -3.7360000  -1.2760000   6.5290000  -2.3070000   6.5950000   7.9450000
  -0.5110000   6.7160000   9.3710000   0.5650000   6.9630000   8.0140000
  -0.1240000   5.4670000   1.7580000   0.8830000   9.1790000   8.6310000
  -0.1630000   8.8710000  10.0140000  -0.8050000  10.3450000   7.5830000
  -1.7680000  10.2040000   9.0590000   1.7990000   3.6080000   0.4320000
   1.3930000   5.2620000   0.0290000   3.1160000   6.0530000   1.2760000
   3.8020000   4.4290000   1.2200000   3.1030000   5.7850000   3.5570000
   3.1650000   4.0280000   3.4400000  -5.3370000   8.8350000   6.6460000
  -1.2460000   5.6340000   3.7370000  -1.2840000   4.0600000   4.5120000
  -4.9990000   9.0470000   9.1280000  -1.7790000   5.0390000   6.4450000
   0.4580000   2.7440000   3.6140000   0.2300000   0.4160000   2.4500000
  -4.4670000   6.0430000   9.0820000  -3.4110000   7.3090000   9.7280000
  -4.9270000   6.9520000  10.4970000  -6.9770000   6.8660000   8.4210000
  -7.0460000   8.0320000   9.7300000  -7.1980000   8.5820000   8.0610000
  -4.4130000   7.1220000   5.4180000  -3.7490000   6.3790000   6.7160000
  -1.8110000   0.4800000   1.3990000  -2.4860000   1.6570000   2.4230000
  -2.0360000  -1.2290000   3.3530000  -3.3950000  -0.8030000   2.3780000
  -4.4890000   0.4430000   4.0220000  -3.0520000   0.7880000   4.9380000
  -3.2600000  -0.3800000   8.3190000  -2.9300000   0.5590000   6.8890000
  -4.3990000  -3.2060000   6.4540000  -3.9690000  -2.6560000   8.0370000
  -4.0390000  -1.9790000   4.6250000
