%VERSION  VERSION_STAMP = V0001.000  DATE = 08/20/26  19:33:31                  
%FLAG TITLE                                                                     
%FORMAT(20a4)                                                                   
/home/nanomd/Desktop/Sakthidhas                                                 
%FLAG POINTERS                                                                  
%FORMAT(10I8)                                                                   
      77      11      40      38      92      52     164     118       0       0
     435       1      38      52     118      21      46      44      13       0
       0       0       0       0       0       0       0       0      77       0
       0
%FLAG ATOM_NAME                                                                 
%FORMAT(20a4)                                                                   
O1  O2  O3  O4  O5  O6  N7  N8  N9  N10 N11 N12 N13 N14 C15 C16 C17 C18 C19 C20 
C21 C22 C23 C24 C25 C26 C27 C28 C29 C30 C31 C32 C33 C34 C35 C36 C37 H38 H39 H40 
H41 H42 H43 H44 H45 H46 H47 H48 H49 H50 H51 H52 H53 H54 H55 H56 H57 H58 H59 H60 
H61 H62 H63 H64 H65 H66 H67 H68 H69 H70 H71 H72 H73 H74 H75 H76 H77 
%FLAG CHARGE                                                                    
%FORMAT(5E16.8)                                                                 
 -1.05525339E+01 -1.11720921E+01 -1.14454266E+01 -1.11356475E+01 -1.55855332E+01
 -1.55855332E+01 -8.34216894E+00 -8.59728114E+00 -9.40088457E+00 -9.40088457E+00
 -1.67973161E+01 -6.70762863E+00 -8.04878991E+00 -8.04878991E+00  6.50536110E-01
 -1.77485202E+00  3.95423910E-01 -1.68374052E+00  1.51245090E+00 -1.48329522E+00
 -1.73840742E+00  1.56711780E+00  1.12449813E+01  1.13360928E+01  2.32334325E+00
  1.16276496E+01  1.16823165E+01 -2.73334500E-01 -1.14253821E+00  6.74225100E-02
 -1.66005153E+00 -1.66005153E+00 -1.42862832E+00 -1.88418582E+00  1.61376689E+01
  1.33022790E-01  9.68150799E+00  1.25187201E+00  1.25187201E+00  1.25187201E+00
  1.59809571E+00  1.02409326E+00  1.02409326E+00  1.17898281E+00  1.17898281E+00
  1.17898281E+00  1.17898281E+00  1.01498211E+00  1.01498211E+00  1.06964901E+00
  1.06964901E+00  1.68920721E+00  2.19943161E+00  2.19943161E+00  1.27009431E+00
  5.51224575E+00  5.69446875E+00  1.17898281E+00  6.71801534E-01  6.71801534E-01
  6.71801534E-01  6.71801534E-01  6.71801534E-01  6.71801534E-01  6.75682884E+00
  6.75682884E+00  1.34298351E+00  1.34298351E+00  1.00587096E+00  1.00587096E+00
  1.44320616E+00  1.44320616E+00  5.26988916E+00  5.26988916E+00  5.26988916E+00
  5.26988916E+00  5.02388811E+00
%FLAG ATOMIC_NUMBER                                                             
%FORMAT(10I8)                                                                   
       8       8       8       8       8       8       7       7       7       7
       7       7       7       7       6       6       6       6       6       6
       6       6       6       6       6       6       6       6       6       6
       6       6       6       6       6       6       6       1       1       1
       1       1       1       1       1       1       1       1       1       1
       1       1       1       1       1       1       1       1       1       1
       1       1       1       1       1       1       1       1       1       1
       1       1       1       1       1       1       1
%FLAG MASS                                                                      
%FORMAT(5E16.8)                                                                 
  1.60000000E+01  1.60000000E+01  1.60000000E+01  1.60000000E+01  1.60000000E+01
  1.60000000E+01  1.40100000E+01  1.40100000E+01  1.40100000E+01  1.40100000E+01
  1.40100000E+01  1.40100000E+01  1.40100000E+01  1.40100000E+01  1.20100000E+01
  1.20100000E+01  1.20100000E+01  1.20100000E+01  1.20100000E+01  1.20100000E+01
  1.20100000E+01  1.20100000E+01  1.20100000E+01  1.20100000E+01  1.20100000E+01
  1.20100000E+01  1.20100000E+01  1.20100000E+01  1.20100000E+01  1.20100000E+01
  1.20100000E+01  1.20100000E+01  1.20100000E+01  1.20100000E+01  1.20100000E+01
  1.20100000E+01  1.20100000E+01  1.00800000E+00  1.00800000E+00  1.00800000E+00
  1.00800000E+00  1.00800000E+00  1.00800000E+00  1.00800000E+00  1.00800000E+00
  1.00800000E+00  1.00800000E+00  1.00800000E+00  1.00800000E+00  1.00800000E+00
  1.00800000E+00  1.00800000E+00  1.00800000E+00  1.00800000E+00  1.00800000E+00
  1.00800000E+00  1.00800000E+00  1.00800000E+00  1.00800000E+00  1.00800000E+00
  1.00800000E+00  1.00800000E+00  1.00800000E+00  1.00800000E+00  1.00800000E+00
  1.00800000E+00  1.00800000E+00  1.00800000E+00  1.00800000E+00  1.00800000E+00
  1.00800000E+00  1.00800000E+00  1.00800000E+00  1.00800000E+00  1.00800000E+00
  1.00800000E+00  1.00800000E+00
%FLAG ATOM_TYPE_INDEX                                                           
%FORMAT(10I8)                                                                   
       1       1       1       1       1       1       2       2       3       3
       4       5       6       6       7       7       7       7       7       7
       7       7       8       8       7       8       8       7       7       7
       7       7       7       7       8       7       8       9      10      10
       9      10      10       9       9      10      10      10      10       9
       9       9       9       9      10      11      11       9      10      10
      10      10      10      10      11      11      10      10      10      10
       9       9      11      11      11      11      11
%FLAG NUMBER_EXCLUDED_ATOMS                                                     
%FORMAT(10I8)                                                                   
       8       8       8       8       6       5      18      18       9      12
       9      15       8       7      15      11      15      10      10      11
      10      10       9      11      13       8       8       3      12      10
       9       8      11      11       4       8       7       2       3       2
       2       3       2       1       1       3       2       3       2       1
       1       3       2       1       6       1       1       2       2       1
       1       2       1       1       1       1       3       2       3       2
       2       1       1       1       1       1       1
%FLAG NONBONDED_PARM_INDEX                                                      
%FORMAT(10I8)                                                                   
       1       2       4       7      11      16      22      29      37      46
      56       2       3       5       8      12      17      23      30      38
      47      57       4       5       6       9      13      18      24      31
      39      48      58       7       8       9      10      14      19      25
      32      40      49      59      11      12      13      14      15      20
      26      33      41      50      60      16      17      18      19      20
      21      27      34      42      51      61      22      23      24      25
      26      27      28      35      43      52      62      29      30      31
      32      33      34      35      36      44      53      63      37      38
      39      40      41      42      43      44      45      54      64      46
      47      48      49      50      51      52      53      54      55      65
      56      57      58      59      60      61      62      63      64      65
      66
%FLAG RESIDUE_LABEL                                                             
%FORMAT(20a4)                                                                   
UNK 
%FLAG RESIDUE_POINTER                                                           
%FORMAT(10I8)                                                                   
       1
%FLAG BOND_FORCE_CONSTANT                                                       
%FORMAT(5E16.8)                                                                 
  5.90600000E+02  3.17460000E+02  2.51070000E+02  2.61660000E+02  3.36070000E+02
  4.73590000E+02  4.60680000E+02  2.53810000E+02  2.58820000E+02  4.72490000E+02
  3.87980000E+02  3.85810000E+02  4.77540000E+02  2.29450000E+02  3.43780000E+02
  2.20100000E+02  3.46430000E+02  2.34850000E+02  3.44220000E+02  2.28890000E+02
  3.45250000E+02
%FLAG BOND_EQUIL_VALUE                                                          
%FORMAT(5E16.8)                                                                 
  1.21900000E+00  1.39670000E+00  1.46850000E+00  1.45560000E+00  1.37980000E+00
  1.01320000E+00  1.01920000E+00  1.46510000E+00  1.45900000E+00  1.01370000E+00
  1.33810000E+00  1.33970000E+00  1.01140000E+00  1.53460000E+00  1.09720000E+00
  1.54830000E+00  1.09540000E+00  1.52700000E+00  1.09690000E+00  1.53540000E+00
  1.09620000E+00
%FLAG ANGLE_FORCE_CONSTANT                                                      
%FORMAT(5E16.8)                                                                 
  8.72100000E+01  7.53100000E+01  7.64500000E+01  8.66800000E+01  1.04940000E+02
  6.51900000E+01  6.52200000E+01  4.75800000E+01  6.73400000E+01  4.83900000E+01
  6.67700000E+01  6.82800000E+01  6.54300000E+01  4.82100000E+01  6.56600000E+01
  6.54800000E+01  6.57100000E+01  4.80400000E+01  7.48800000E+01  7.50500000E+01
  7.72200000E+01  7.75800000E+01  4.26500000E+01  6.18400000E+01  6.09400000E+01
  4.26500000E+01  7.69000000E+01  5.73700000E+01  4.35100000E+01  4.37400000E+01
  6.03600000E+01  5.61700000E+01  5.98700000E+01  4.32700000E+01  5.46200000E+01
  4.32800000E+01  5.50000000E+01  7.66200000E+01  5.88100000E+01  5.78500000E+01
  3.59100000E+01  3.57000000E+01  3.56400000E+01  3.58000000E+01  4.78900000E+01
  4.63600000E+01
%FLAG ANGLE_EQUIL_VALUE                                                         
%FORMAT(5E16.8)                                                                 
  2.14762857E+00  2.19335621E+00  2.14501057E+00  2.13925098E+00  2.27172153E+00
  2.04482863E+00  1.94813735E+00  1.92893872E+00  1.80920908E+00  1.89350852E+00
  1.88390920E+00  1.86977203E+00  1.94935908E+00  1.88705080E+00  1.93661817E+00
  1.93574550E+00  1.92911325E+00  1.91392888E+00  2.09893386E+00  2.08689108E+00
  2.06821605E+00  1.95494413E+00  1.94028336E+00  1.81217614E+00  1.88251294E+00
  1.94028336E+00  2.12860447E+00  2.04657396E+00  1.89455572E+00  1.89141412E+00
  1.94482122E+00  1.91305621E+00  1.96576518E+00  1.91427794E+00  2.04936649E+00
  1.91270715E+00  2.01254002E+00  2.19318168E+00  2.05268261E+00  2.11848155E+00
  1.87134283E+00  1.88722533E+00  1.89455572E+00  1.88024401E+00  1.85668205E+00
  2.01201642E+00
%FLAG DIHEDRAL_FORCE_CONSTANT                                                   
%FORMAT(5E16.8)                                                                 
  2.50000000E+00  2.00000000E+00  0.00000000E+00  8.00000000E-01  8.00000000E-02
  6.80000000E-01  2.00000000E-01  4.40000000E-01  7.10000000E-01  0.00000000E+00
  1.00000000E-01  2.12000000E+00  1.55555556E-01  1.00000000E-01  1.05000000E+00
  2.30000000E-01  5.20000000E-01  5.00000000E-02  6.70000000E-01  6.75000000E-01
  5.80000000E-01  9.10000000E-01  9.30000000E-01  2.93000000E+00  1.41000000E+00
  5.00000000E-01  0.00000000E+00  1.30000000E-01  2.26000000E+00  3.00000000E-02
  6.50000000E-01  4.60000000E-01  4.00000000E-02  0.00000000E+00  0.00000000E+00
  8.90000000E-01  6.40000000E-01  3.90000000E-01  3.00000000E-01  1.15000000E+00
  1.48000000E-01  1.20000000E-01  1.10000000E+00  1.05000000E+01
%FLAG DIHEDRAL_PERIODICITY                                                      
%FORMAT(5E16.8)                                                                 
  2.00000000E+00  1.00000000E+00  2.00000000E+00  1.00000000E+00  3.00000000E+00
  1.00000000E+00  2.00000000E+00  3.00000000E+00  2.00000000E+00  4.00000000E+00
  1.00000000E+00  2.00000000E+00  3.00000000E+00  3.00000000E+00  3.00000000E+00
  2.00000000E+00  3.00000000E+00  3.00000000E+00  1.00000000E+00  2.00000000E+00
  1.00000000E+00  2.00000000E+00  3.00000000E+00  1.00000000E+00  2.00000000E+00
  3.00000000E+00  2.00000000E+00  3.00000000E+00  1.00000000E+00  3.00000000E+00
  4.00000000E+00  1.00000000E+00  2.00000000E+00  3.00000000E+00  1.00000000E+00
  1.00000000E+00  1.00000000E+00  2.00000000E+00  3.00000000E+00  1.00000000E+00
  2.00000000E+00  3.00000000E+00  2.00000000E+00  2.00000000E+00
%FLAG DIHEDRAL_PHASE                                                            
%FORMAT(5E16.8)                                                                 
  3.14159400E+00  0.00000000E+00  3.14159400E+00  0.00000000E+00  3.14159400E+00
  0.00000000E+00  3.14159400E+00  3.14159400E+00  3.14159400E+00  3.14159400E+00
  3.14159400E+00  3.14159400E+00  0.00000000E+00  0.00000000E+00  3.14159400E+00
  3.14159400E+00  0.00000000E+00  0.00000000E+00  0.00000000E+00  3.14159400E+00
  3.14159400E+00  3.14159400E+00  0.00000000E+00  0.00000000E+00  3.14159400E+00
  0.00000000E+00  0.00000000E+00  0.00000000E+00  0.00000000E+00  3.14159400E+00
  3.14159400E+00  3.14159400E+00  0.00000000E+00  0.00000000E+00  0.00000000E+00
  0.00000000E+00  0.00000000E+00  3.14159400E+00  0.00000000E+00  3.14159400E+00
  3.14159400E+00  0.00000000E+00  3.14159400E+00  3.14159400E+00
%FLAG SCEE_SCALE_FACTOR                                                         
%FORMAT(5E16.8)                                                                 
  1.20000000E+00  1.20000000E+00  1.20000000E+00  1.20000000E+00  1.20000000E+00
  1.20000000E+00  1.20000000E+00  1.20000000E+00  1.20000000E+00  1.20000000E+00
  1.20000000E+00  1.20000000E+00  1.20000000E+00  1.20000000E+00  1.20000000E+00
  1.20000000E+00  1.20000000E+00  1.20000000E+00  1.20000000E+00  1.20000000E+00
  1.20000000E+00  1.20000000E+00  1.20000000E+00  1.20000000E+00  1.20000000E+00
  1.20000000E+00  1.20000000E+00  1.20000000E+00  1.20000000E+00  1.20000000E+00
  1.20000000E+00  1.20000000E+00  1.20000000E+00  1.20000000E+00  1.20000000E+00
  1.20000000E+00  1.20000000E+00  1.20000000E+00  1.20000000E+00  1.20000000E+00
  1.20000000E+00  1.20000000E+00  0.00000000E+00  0.00000000E+00
%FLAG SCNB_SCALE_FACTOR                                                         
%FORMAT(5E16.8)                                                                 
  2.00000000E+00  2.00000000E+00  2.00000000E+00  2.00000000E+00  2.00000000E+00
  2.00000000E+00  2.00000000E+00  2.00000000E+00  2.00000000E+00  2.00000000E+00
  2.00000000E+00  2.00000000E+00  2.00000000E+00  2.00000000E+00  2.00000000E+00
  2.00000000E+00  2.00000000E+00  2.00000000E+00  2.00000000E+00  2.00000000E+00
  2.00000000E+00  2.00000000E+00  2.00000000E+00  2.00000000E+00  2.00000000E+00
  2.00000000E+00  2.00000000E+00  2.00000000E+00  2.00000000E+00  2.00000000E+00
  2.00000000E+00  2.00000000E+00  2.00000000E+00  2.00000000E+00  2.00000000E+00
  2.00000000E+00  2.00000000E+00  2.00000000E+00  2.00000000E+00  2.00000000E+00
  2.00000000E+00  2.00000000E+00  0.00000000E+00  0.00000000E+00
%FLAG SOLTY                                                                     
%FORMAT(5E16.8)                                                                 
  0.00000000E+00  0.00000000E+00  0.00000000E+00  0.00000000E+00  0.00000000E+00
  0.00000000E+00  0.00000000E+00  0.00000000E+00  0.00000000E+00  0.00000000E+00
  0.00000000E+00  0.00000000E+00  0.00000000E+00
%FLAG LENNARD_JONES_ACOEF                                                       
%FORMAT(5E16.8)                                                                 
  3.76435470E+05  5.15491878E+05  7.02078680E+05  5.17814271E+05  7.02755693E+05
  7.01825028E+05  5.47655232E+05  7.32902744E+05  7.25299868E+05  7.22850509E+05
  6.04358274E+05  8.19918726E+05  8.18644626E+05  8.45253177E+05  9.54886922E+05
  6.08567325E+05  8.22806637E+05  8.19705544E+05  8.38899112E+05  9.55911054E+05
  9.54875571E+05  6.30925504E+05  8.52084164E+05  8.48258258E+05  8.65620051E+05
  9.89136215E+05  9.87370297E+05  1.02073671E+06  5.17507491E+05  7.01106848E+05
  6.99381362E+05  7.19505991E+05  8.15700858E+05  8.15855629E+05  8.43969952E+05
  6.96551276E+05  3.86646725E+04  5.45183252E+04  5.58085097E+04  6.36026248E+04
  6.52595638E+04  6.69267216E+04  6.97998263E+04  5.63013422E+04  3.39005767E+03
  5.68021765E+04  7.93773615E+04  8.07866982E+04  8.99910629E+04  9.44129241E+04
  9.62844277E+04  1.00235148E+05  8.12662403E+04  5.22955465E+03  7.94617769E+03
  9.87857350E+02  1.52360475E+03  1.65195713E+03  2.35480845E+03  1.94284817E+03
  2.10567903E+03  2.23577481E+03  1.71458823E+03  5.24570081E+01  9.47421632E+01
  1.34728399E-01
%FLAG LENNARD_JONES_BCOEF                                                       
%FORMAT(5E16.8)                                                                 
  4.69350655E+02  5.64804067E+02  6.77820248E+02  5.21008860E+02  6.24158704E+02
  5.74088001E+02  3.88056827E+02  4.61635953E+02  4.22674891E+02  3.05601515E+02
  6.02865504E+02  7.22093348E+02  6.64089859E+02  4.88715545E+02  7.68192761E+02
  5.58212938E+02  6.67466109E+02  6.13169384E+02  4.49251979E+02  7.09210839E+02
  6.54052181E+02  5.62969425E+02  6.72777963E+02  6.17825399E+02  4.52010965E+02
  7.14570130E+02  6.58763033E+02  6.63431737E+02  4.98871431E+02  5.97113873E+02
  5.48900066E+02  4.03215362E+02  6.34916791E+02  5.85909304E+02  5.90251928E+02
  5.24668528E+02  9.23664132E+01  1.12788003E+02  1.05029928E+02  8.12052260E+01
  1.21646616E+02  1.13671113E+02  1.14981426E+02  1.01040256E+02  1.67944276E+01
  1.11953944E+02  1.36094315E+02  1.26366740E+02  9.65931103E+01  1.46316625E+02
  1.36341592E+02  1.37787728E+02  1.21392023E+02  2.08590256E+01  2.57122925E+01
  1.22938581E+01  1.57004457E+01  1.50468782E+01  1.30109323E+01  1.74775900E+01
  1.67892226E+01  1.71355763E+01  1.46824710E+01  1.73959275E+00  2.33785449E+00
  7.34107347E-02
%FLAG BONDS_INC_HYDROGEN                                                        
%FORMAT(10I8)                                                                   
      24     165       6      27     168       6      30     192       7      30
     195       7      33     228      10      36     219      13      36     216
      13      39     222      13      39     225      13      42     111      15
      45     117      17      45     114      17      48     120      15      51
     123      17      51     126      17      54     129      15      54     132
      15      57     138      17      57     135      17      60     144      17
      60     141      17      63     150      15      63     147      15      72
     153      19      81     156      19      81     159      19      84     162
      21      87     171      19      90     174      21      90     177      21
      90     180      21      93     189      21      93     183      21      93
     186      21      96     198      21      96     201      21      99     207
      21      99     204      21     105     210      19     105     213      19
%FLAG BONDS_WITHOUT_HYDROGEN                                                    
%FORMAT(10I8)                                                                   
       0      66       1       3      69       1       6      75       1       9
      78       1      12     102       1      15     102       1      18      69
       2      18      42       3      18      54       3      21      48       3
      21      63       3      21      75       2      24      81       4      24
      66       5      27      78       5      27      87       4      30      72
       8      33     105       9      33     108      11      36     108      12
      39     108      12      42      66      14      42      45      16      45
      51      16      48      57      16      48      78      14      51      54
      16      57      60      16      60      63      16      69      72      18
      72      84      20      75      81      18      84      93      20      84
      90      20      87      96      20      87     102      18      96      99
      20      99     105      20
%FLAG ANGLES_INC_HYDROGEN                                                       
%FORMAT(10I8)                                                                   
      18      42     111       8      18      54     129       8      18      54
     132       8      21      48     120       8      21      63     150       8
      21      63     147       8      24      81     156      10      24      81
     159      10      27      87     171      10      30      72     153      14
      33     105     210      18      33     105     213      18      42      45
     117      23      42      45     114      23      45      42     111      26
      45      51     123      23      45      51     126      23      48      57
     138      23      48      57     135      23      51      54     129      26
      51      54     132      26      51      45     117      23      51      45
     114      23      54      51     123      23      54      51     126      23
      57      60     144      23      57      60     141      23      57      48
     120      26      60      57     138      23      60      57     135      23
      60      63     150      26      60      63     147      26      63      60
     144      23      63      60     141      23      66      24     165      28
      66      42     111      29      69      72     153      30      72      30
     192      32      72      30     195      32      72      84     162      34
      75      81     156      30      75      81     159      30      78      48
     120      29      78      27     168      28      81      24     165      35
      84      72     153      36      84      93     189      34      84      93
     183      34      84      93     186      34      84      90     174      34
      84      90     177      34      84      90     180      34      87      96
     198      34      87      96     201      34      87      27     168      35
      90      84     162      34      93      84     162      34      96      87
     171      36      96      99     207      34      96      99     204      34
      99      96     198      34      99      96     201      34      99     105
     210      36      99     105     213      36     102      87     171      30
     105      99     207      34     105      99     204      34     105      33
     228      37     108      33     228      39     108      39     222      40
     108      39     225      40     108      36     219      40     108      36
     216      40     114      45     117      41     123      51     126      41
     129      54     132      42     135      57     138      41     141      60
     144      41     147      63     150      42     156      81     159      43
     174      90     177      44     174      90     180      44     177      90
     180      44     183      93     189      44     183      93     186      44
     186      93     189      44     192      30     195      45     198      96
     201      44     204      99     207      44     210     105     213      43
     216      36     219      46     222      39     225      46
%FLAG ANGLES_WITHOUT_HYDROGEN                                                   
%FORMAT(10I8)                                                                   
       0      66      24       1       0      66      42       2       3      69
      72       3       3      69      18       4       6      75      21       4
       6      75      81       3       9      78      48       2       9      78
      27       1      12     102      87       3      12     102      15       5
      15     102      87       3      18      69      72       6      18      42
      66       7      18      42      45       9      18      54      51       9
      21      48      57       9      21      48      78       7      21      63
      60       9      21      75      81       6      24      81      75      11
      24      66      42      12      27      78      48      12      27      87
      96      13      27      87     102      11      30      72      69      15
      30      72      84      16      33     105      99      17      33     108
      39      19      33     108      36      19      36     108      39      20
      42      18      69      21      42      18      54      22      42      45
      51      24      45      42      66      25      45      51      54      24
      48      57      60      24      48      21      63      22      48      21
      75      21      54      18      69      21      57      60      63      24
      57      48      78      25      63      21      75      21      66      24
      81      27      69      72      84      31      72      84      93      33
      72      84      90      33      78      27      87      27      87      96
      99      33      90      84      93      33      96      87     102      31
      96      99     105      33     105      33     108      38
%FLAG DIHEDRALS_INC_HYDROGEN                                                    
%FORMAT(10I8)                                                                   
       0      66      24     165       2       0      66     -24     165       1
       0      66      42     111       4       0      66     -42     111       5
       3      69      72     153       4       3      69     -72     153       5
       6      75      81     156       4       6      75     -81     156       5
       6      75      81     159       4       6      75     -81     159       5
       9      78      48     120       4       9      78     -48     120       5
       9      78      27     168       2       9      78     -27     168       1
      12     102      87     171       4      12     102     -87     171       5
      15     102      87     171       4      15     102     -87     171       5
      18      69      72     153       3      18      42      45     117      13
      18      42      45     114      13      18      54      51     123      13
      18      54      51     126      13      21      48      57     138      13
      21      48      57     135      13      21      63      60     144      13
      21      63      60     141      13      21      75      81     156       3
      21      75      81     159       3      24      66      42     111       3
      27      78      48     120       3      27      87      96     198      13
      27      87      96     201      13      30      72      84     162      18
      33     105      99     207      13      33     105      99     204      13
      33     108      39     222      20      33     108      39     225      20
      33     108      36     219      20      33     108      36     216      20
      36     108      33     228      20      36     108      39     222      20
      36     108      39     225      20      39     108      33     228      20
      39     108      36     219      20      39     108      36     216      20
      42      66      24     165       1      42      18      54     129      27
      42      18      54     132      27      42      45      51     123      28
      42      45      51     126      28      45      51      54     129      13
      45      51      54     132      13      48      57      60     144      28
      48      57      60     141      28      48      78      27     168       1
      48      21      63     150      27      48      21      63     147      27
      51      45      42     111      13      54      18      42     111      27
      54      51      45     117      28      54      51      45     114      28
      57      60      63     150      13      57      60      63     147      13
      60      57      48     120      13      63      60      57     138      28
      63      60      57     135      28      63      21      48     120      27
      66      24      81     156      35      66      24      81     159      35
      66      42      45     117      13      66      42      45     114      13
      69      72      30     192      39      69      72      30     195      39
      69      72      84     162      13      69      18      42     111       3
      69      18      54     129       3      69      18      54     132       3
      72      84      93     189      28      72      84      93     183      28
      72      84      93     186      28      72      84      90     174      28
      72      84      90     177      28      72      84      90     180      28
      75      21      48     120       3      75      21      63     150       3
      75      21      63     147       3      75      81      24     165      27
      78      48      57     138      13      78      48      57     135      13
      78      27      87     171      35      84      72      30     192      30
      84      72      30     195      30      87      96      99     207      28
      87      96      99     204      28      90      84      72     153      13
      90      84      93     189      28      90      84      93     183      28
      90      84      93     186      28      93      84      72     153      13
      93      84      90     174      28      93      84      90     177      28
      93      84      90     180      28      96      87      27     168      27
      96      99     105     210      13      96      99     105     213      13
      99      96      87     171      13      99     105      33     228      27
     102      87      96     198      13     102      87      96     201      13
     102      87      27     168      27     105      99      96     198      28
     105      99      96     201      28     108      33     105     210      27
     108      33     105     213      27     111      42      45     117      13
     111      42      45     114      13     114      45      51     123      42
     114      45      51     126      42     117      45      51     123      42
     117      45      51     126      42     120      48      57     138      13
     120      48      57     135      13     123      51      54     129      13
     123      51      54     132      13     126      51      54     129      13
     126      51      54     132      13     135      57      60     144      42
     135      57      60     141      42     138      57      60     144      42
     138      57      60     141      42     141      60      63     150      13
     141      60      63     147      13     144      60      63     150      13
     144      60      63     147      13     153      72      30     192      39
     153      72      30     195      39     153      72      84     162      13
     156      81      24     165      27     159      81      24     165      27
     162      84      93     189      42     162      84      93     183      42
     162      84      93     186      42     162      84      90     174      42
     162      84      90     177      42     162      84      90     180      42
     168      27      87     171      27     171      87      96     198      13
     171      87      96     201      13     198      96      99     207      42
     198      96      99     204      42     201      96      99     207      42
     201      96      99     204      42     204      99     105     210      13
     204      99     105     213      13     207      99     105     210      13
     207      99     105     213      13     210     105      33     228      27
     213     105      33     228      27      66      81     -24    -165      43
      78      87     -27    -168      43     105     108     -33    -228      43
     108     216     -36    -219      43     108     222     -39    -225      43
%FLAG DIHEDRALS_WITHOUT_HYDROGEN                                                
%FORMAT(10I8)                                                                   
       0      66      24      81       1       0      66      42      18       3
       0      66      42      45       6       0      66     -42      45       7
       0      66     -42      45       8       3      69      72      30       3
       3      69      72      84       6       3      69     -72      84       7
       3      69     -72      84       8       3      69      18      42       1
       3      69      18      54       1       6      75      21      48       1
       6      75      21      63       1       6      75      81      24       3
       9      78      48      57       6       9      78     -48      57       7
       9      78     -48      57       8       9      78      48      21       3
       9      78      27      87       1      12     102      87      96       6
      12     102     -87      96       7      12     102     -87      96       8
      12     102      87      27       3      15     102      87      96       6
      15     102     -87      96       7      15     102     -87      96       8
      15     102      87      27       3      18      69      72      30       3
      18      69      72      84       9      18      69     -72      84      10
      18      42      66      24      11      18      42     -66      24      12
      18      42     -45      51      14      18      54     -51      45      14
      21      48     -57      60      14      21      48      78      27      11
      21      48     -78      27      12      21      63     -60      57      14
      21      75      81      24      11      21      75     -81      24      12
      24      66      42      45      15      27      78      48      57      15
      27      87      96      99      16      30      72      84      93      17
      30      72      84      90      17      33     105      99      96      19
      36     108      33     105      20      39     108      33     105      20
      42      66      24      81      21      42      66     -24      81      22
      42      66     -24      81      23      42      18      69      72      24
      42      18     -69      72      25      42      18     -69      72      26
      42      18     -54      51      27      42      45     -51      54      17
      45      42      18      69      29      45      42     -18      69      30
      45      42     -18      69      31      45      42     -18      54      27
      48      57     -60      63      17      48      78      27      87      21
      48      78     -27      87      22      48      78     -27      87      23
      48      21     -63      60      27      48      21      75      81      24
      48      21     -75      81      25      48      21     -75      81      26
      51      54      18      69      29      51      54     -18      69      30
      51      54     -18      69      31      51      45      42      66      32
      51      45     -42      66      33      51      45     -42      66      34
      54      18      69      72      24      54      18     -69      72      25
      54      18     -69      72      26      54      18      42      66      27
      57      48     -21      63      27      57      48      21      75      29
      57      48     -21      75      30      57      48     -21      75      31
      60      57      48      78      32      60      57     -48      78      33
      60      57     -48      78      34      60      63      21      75      29
      60      63     -21      75      30      60      63     -21      75      31
      63      21      48      78      27      63      21      75      81      24
      63      21     -75      81      25      63      21     -75      81      26
      66      24      81      75      36      66      42      18      69      37
      66      42     -18      69      38      69      72      84      93      32
      69      72     -84      93      33      69      72     -84      93      34
      69      72      84      90      32      69      72     -84      90      33
      69      72     -84      90      34      75      21      48      78      37
      75      21     -48      78      38      78      27      87      96      40
      78      27      87     102      36      87      96      99     105      17
      99      96      87     102      32      99      96     -87     102      33
      99      96     -87     102      34      99     105      33     108      41
      69      42     -18     -54      43      75      48     -21     -63      43
       0      66     -24     -42      44      72      18     -69      -3      44
      81      21     -75      -6      44      48      27     -78      -9      44
      87      12    -102     -15      43      33      36    -108     -39      43
%FLAG EXCLUDED_ATOMS_LIST                                                       
%FORMAT(10I8)                                                                   
       7       9      15      16      23      28      38      56       7      11
      15      19      24      25      29      52       8       9      17      22
      26      28      53      54       8      10      17      20      27      30
      41      57       6      10      30      33      35      58      10      30
      33      35      58       9      11      15      16      18      19      23
      24      25      29      38      39      40      42      43      44      45
      52       9      10      17      20      21      22      26      27      28
      41      46      47      48      49      50      51      53      54      15
      16      23      26      28      38      53      54      56      17      20
      27      30      33      34      35      41      57      58      67      68
      24      25      29      31      32      52      55      65      66      13
      14      33      34      36      37      69      70      71      72      73
      74      75      76      77      14      36      37      73      74      75
      76      77      36      37      73      74      75      76      77      16
      18      19      23      24      25      28      38      39      40      42
      43      44      45      56      18      19      23      24      38      39
      40      42      43      44      45      20      21      22      26      27
      28      30      41      46      47      48      49      50      51      57
      19      23      24      38      39      40      42      43      44      45
      23      24      25      38      39      40      42      43      44      45
      21      22      26      27      41      46      47      48      49      50
      51      22      26      27      41      46      47      48      49      50
      51      26      27      28      41      46      47      48      49      50
      51      24      26      28      38      39      40      53      54      56
      25      29      31      32      38      44      45      52      55      65
      66      29      31      32      52      55      59      60      61      62
      63      64      65      66      27      28      41      50      51      53
      54      56      30      33      35      41      46      47      57      58
      53      54      56      31      32      52      55      59      60      61
      62      63      64      65      66      33      34      35      36      57
      58      67      68      69      70      32      52      55      59      60
      61      62      63      64      52      55      59      60      61      62
      63      64      34      35      36      57      58      67      68      69
      70      71      72      35      36      37      58      67      68      69
      70      71      72      77      57      58      67      68      37      67
      68      69      70      71      72      77      71      72      73      74
      75      76      77      39      40      40      42      43      42      43
      46      47      43      44      45      44      45      45       0      47
      48      49      48      49      49      50      51      50      51      51
       0      55      65      66      54      56      56      59      60      61
      62      63      64       0      58      67      68      60      61      61
       0      63      64      64       0      66       0      68      69      70
      69      70      70      71      72      71      72      72      77      77
      74       0      76       0       0
%FLAG HBOND_ACOEF                                                               
%FORMAT(5E16.8)                                                                 

%FLAG HBOND_BCOEF                                                               
%FORMAT(5E16.8)                                                                 

%FLAG HBCUT                                                                     
%FORMAT(5E16.8)                                                                 

%FLAG AMBER_ATOM_TYPE                                                           
%FORMAT(20a4)                                                                   
o   o   o   o   o   o   n   n   ns  ns  n8  nu  nv  nv  c5  c5  c5  c5  c5  c5  
c5  c5  c   c   c3  c   c   c3  c3  c3  c3  c3  c3  c3  c   c3  cz  h1  hc  hc  
h1  hc  hc  h1  h1  hc  hc  hc  hc  h1  h1  h1  h1  h1  hc  hn  hn  h1  hc  hc  
hc  hc  hc  hc  hn  hn  hc  hc  hc  hc  h1  h1  hn  hn  hn  hn  hn  
%FLAG TREE_CHAIN_CLASSIFICATION                                                 
%FORMAT(20a4)                                                                   
BLA BLA BLA BLA BLA BLA BLA BLA BLA BLA BLA BLA BLA BLA BLA BLA BLA BLA BLA BLA 
BLA BLA BLA BLA BLA BLA BLA BLA BLA BLA BLA BLA BLA BLA BLA BLA BLA BLA BLA BLA 
BLA BLA BLA BLA BLA BLA BLA BLA BLA BLA BLA BLA BLA BLA BLA BLA BLA BLA BLA BLA 
BLA BLA BLA BLA BLA BLA BLA BLA BLA BLA BLA BLA BLA BLA BLA BLA BLA 
%FLAG JOIN_ARRAY                                                                
%FORMAT(10I8)                                                                   
       0       0       0       0       0       0       0       0       0       0
       0       0       0       0       0       0       0       0       0       0
       0       0       0       0       0       0       0       0       0       0
       0       0       0       0       0       0       0       0       0       0
       0       0       0       0       0       0       0       0       0       0
       0       0       0       0       0       0       0       0       0       0
       0       0       0       0       0       0       0       0       0       0
       0       0       0       0       0       0       0
%FLAG IROTAT                                                                    
%FORMAT(10I8)                                                                   
       0       0       0       0       0       0       0       0       0       0
       0       0       0       0       0       0       0       0       0       0
       0       0       0       0       0       0       0       0       0       0
       0       0       0       0       0       0       0       0       0       0
       0       0       0       0       0       0       0       0       0       0
       0       0       0       0       0       0       0       0       0       0
       0       0       0       0       0       0       0       0       0       0
       0       0       0       0       0       0       0
%FLAG RADIUS_SET                                                                
%FORMAT(1a80)                                                                   
modified Bondi radii (mbondi)                                                   
%FLAG RADII                                                                     
%FORMAT(5E16.8)                                                                 
  1.50000000E+00  1.50000000E+00  1.50000000E+00  1.50000000E+00  1.50000000E+00
  1.50000000E+00  1.55000000E+00  1.55000000E+00  1.55000000E+00  1.55000000E+00
  1.55000000E+00  1.55000000E+00  1.55000000E+00  1.55000000E+00  1.70000000E+00
  1.70000000E+00  1.70000000E+00  1.70000000E+00  1.70000000E+00  1.70000000E+00
  1.70000000E+00  1.70000000E+00  1.70000000E+00  1.70000000E+00  1.70000000E+00
  1.70000000E+00  1.70000000E+00  1.70000000E+00  1.70000000E+00  1.70000000E+00
  1.70000000E+00  1.70000000E+00  1.70000000E+00  1.70000000E+00  1.70000000E+00
  1.70000000E+00  1.70000000E+00  1.30000000E+00  1.30000000E+00  1.30000000E+00
  1.30000000E+00  1.30000000E+00  1.30000000E+00  1.30000000E+00  1.30000000E+00
  1.30000000E+00  1.30000000E+00  1.30000000E+00  1.30000000E+00  1.30000000E+00
  1.30000000E+00  1.30000000E+00  1.30000000E+00  1.30000000E+00  1.30000000E+00
  1.30000000E+00  1.30000000E+00  1.30000000E+00  1.30000000E+00  1.30000000E+00
  1.30000000E+00  1.30000000E+00  1.30000000E+00  1.30000000E+00  1.30000000E+00
  1.30000000E+00  1.30000000E+00  1.30000000E+00  1.30000000E+00  1.30000000E+00
  1.30000000E+00  1.30000000E+00  1.30000000E+00  1.30000000E+00  1.30000000E+00
  1.30000000E+00  1.30000000E+00
%FLAG SCREEN                                                                    
%FORMAT(5E16.8)                                                                 
  8.50000000E-01  8.50000000E-01  8.50000000E-01  8.50000000E-01  8.50000000E-01
  8.50000000E-01  7.90000000E-01  7.90000000E-01  7.90000000E-01  7.90000000E-01
  7.90000000E-01  7.90000000E-01  7.90000000E-01  7.90000000E-01  7.20000000E-01
  7.20000000E-01  7.20000000E-01  7.20000000E-01  7.20000000E-01  7.20000000E-01
  7.20000000E-01  7.20000000E-01  7.20000000E-01  7.20000000E-01  7.20000000E-01
  7.20000000E-01  7.20000000E-01  7.20000000E-01  7.20000000E-01  7.20000000E-01
  7.20000000E-01  7.20000000E-01  7.20000000E-01  7.20000000E-01  7.20000000E-01
  7.20000000E-01  7.20000000E-01  8.50000000E-01  8.50000000E-01  8.50000000E-01
  8.50000000E-01  8.50000000E-01  8.50000000E-01  8.50000000E-01  8.50000000E-01
  8.50000000E-01  8.50000000E-01  8.50000000E-01  8.50000000E-01  8.50000000E-01
  8.50000000E-01  8.50000000E-01  8.50000000E-01  8.50000000E-01  8.50000000E-01
  8.50000000E-01  8.50000000E-01  8.50000000E-01  8.50000000E-01  8.50000000E-01
  8.50000000E-01  8.50000000E-01  8.50000000E-01  8.50000000E-01  8.50000000E-01
  8.50000000E-01  8.50000000E-01  8.50000000E-01  8.50000000E-01  8.50000000E-01
  8.50000000E-01  8.50000000E-01  8.50000000E-01  8.50000000E-01  8.50000000E-01
  8.50000000E-01  8.50000000E-01
%FLAG IPOL                                                                      
%FORMAT(1I8)                                                                    
       0
