; ligand_GMX.itp created by acpype (v: 2023.10.27) on Thu Aug 20 19:31:22 2026

[ atomtypes ]
;name   bond_type     mass     charge   ptype   sigma         epsilon       Amb
 o        o           0.00000  0.00000   A     3.04812e-01   6.12119e-01 ; 1.71  0.1463
 n        n           0.00000  0.00000   A     3.18086e-01   6.84502e-01 ; 1.79  0.1636
 ns       ns          0.00000  0.00000   A     3.26995e-01   4.91202e-01 ; 1.84  0.1174
 n8       n8          0.00000  0.00000   A     3.65019e-01   1.35143e-01 ; 2.05  0.0323
 nu       nu          0.00000  0.00000   A     3.27904e-01   6.46428e-01 ; 1.84  0.1545
 nv       nv          0.00000  0.00000   A     3.36813e-01   4.68608e-01 ; 1.89  0.1120
 c5       c5          0.00000  0.00000   A     3.39771e-01   4.51035e-01 ; 1.91  0.1078
 c        c           0.00000  0.00000   A     3.31521e-01   4.13379e-01 ; 1.86  0.0988
 c3       c3          0.00000  0.00000   A     3.39771e-01   4.51035e-01 ; 1.91  0.1078
 cz       cz          0.00000  0.00000   A     3.31521e-01   4.13379e-01 ; 1.86  0.0988
 h1       h1          0.00000  0.00000   A     2.42200e-01   8.70272e-02 ; 1.36  0.0208
 hc       hc          0.00000  0.00000   A     2.60018e-01   8.70272e-02 ; 1.46  0.0208
 hn       hn          0.00000  0.00000   A     1.10650e-01   4.18400e-02 ; 0.62  0.0100

[ moleculetype ]
;name            nrexcl
 ligand           3

[ atoms ]
;   nr  type  resi  res  atom  cgnr     charge      mass       ; qtot   bond_type
     1    o     1   UNK    O1    1    -0.579100     16.00000 ; qtot -0.579
     2    o     1   UNK    O2    2    -0.613100     16.00000 ; qtot -1.192
     3    o     1   UNK    O3    3    -0.628100     16.00000 ; qtot -1.820
     4    o     1   UNK    O4    4    -0.611100     16.00000 ; qtot -2.431
     5    o     1   UNK    O5    5    -0.855300     16.00000 ; qtot -3.287
     6    o     1   UNK    O6    6    -0.855300     16.00000 ; qtot -4.142
     7    n     1   UNK    N7    7    -0.457800     14.01000 ; qtot -4.600
     8    n     1   UNK    N8    8    -0.471800     14.01000 ; qtot -5.072
     9   ns     1   UNK    N9    9    -0.515900     14.01000 ; qtot -5.587
    10   ns     1   UNK   N10   10    -0.515900     14.01000 ; qtot -6.103
    11   n8     1   UNK   N11   11    -0.925802     14.01000 ; qtot -7.029
    12   nu     1   UNK   N12   12    -0.368100     14.01000 ; qtot -7.397
    13   nv     1   UNK   N13   13    -0.441700     14.01000 ; qtot -7.839
    14   nv     1   UNK   N14   14    -0.441700     14.01000 ; qtot -8.281
    15   c5     1   UNK   C15   15     0.035700     12.01000 ; qtot -8.245
    16   c5     1   UNK   C16   16    -0.097400     12.01000 ; qtot -8.342
    17   c5     1   UNK   C17   17     0.021700     12.01000 ; qtot -8.321
    18   c5     1   UNK   C18   18    -0.092400     12.01000 ; qtot -8.413
    19   c5     1   UNK   C19   19     0.083000     12.01000 ; qtot -8.330
    20   c5     1   UNK   C20   20    -0.081400     12.01000 ; qtot -8.412
    21   c5     1   UNK   C21   21    -0.095400     12.01000 ; qtot -8.507
    22   c5     1   UNK   C22   22     0.086000     12.01000 ; qtot -8.421
    23    c     1   UNK   C23   23     0.617100     12.01000 ; qtot -7.804
    24    c     1   UNK   C24   24     0.622100     12.01000 ; qtot -7.182
    25   c3     1   UNK   C25   25     0.127500     12.01000 ; qtot -7.054
    26    c     1   UNK   C26   26     0.638100     12.01000 ; qtot -6.416
    27    c     1   UNK   C27   27     0.641100     12.01000 ; qtot -5.775
    28   c3     1   UNK   C28   28    -0.015000     12.01000 ; qtot -5.790
    29   c3     1   UNK   C29   29    -0.062700     12.01000 ; qtot -5.853
    30   c3     1   UNK   C30   30     0.003700     12.01000 ; qtot -5.849
    31   c3     1   UNK   C31   31    -0.091100     12.01000 ; qtot -5.940
    32   c3     1   UNK   C32   32    -0.091100     12.01000 ; qtot -6.031
    33   c3     1   UNK   C33   33    -0.078400     12.01000 ; qtot -6.110
    34   c3     1   UNK   C34   34    -0.103400     12.01000 ; qtot -6.213
    35    c     1   UNK   C35   35     0.885600     12.01000 ; qtot -5.327
    36   c3     1   UNK   C36   36     0.007300     12.01000 ; qtot -5.320
    37   cz     1   UNK   C37   37     0.531300     12.01000 ; qtot -4.789
    38   h1     1   UNK   H38   38     0.068700      1.00800 ; qtot -4.720
    39   hc     1   UNK   H39   39     0.068700      1.00800 ; qtot -4.651
    40   hc     1   UNK   H40   40     0.068700      1.00800 ; qtot -4.583
    41   h1     1   UNK   H41   41     0.087700      1.00800 ; qtot -4.495
    42   hc     1   UNK   H42   42     0.056200      1.00800 ; qtot -4.439
    43   hc     1   UNK   H43   43     0.056200      1.00800 ; qtot -4.383
    44   h1     1   UNK   H44   44     0.064700      1.00800 ; qtot -4.318
    45   h1     1   UNK   H45   45     0.064700      1.00800 ; qtot -4.253
    46   hc     1   UNK   H46   46     0.064700      1.00800 ; qtot -4.189
    47   hc     1   UNK   H47   47     0.064700      1.00800 ; qtot -4.124
    48   hc     1   UNK   H48   48     0.055700      1.00800 ; qtot -4.068
    49   hc     1   UNK   H49   49     0.055700      1.00800 ; qtot -4.012
    50   h1     1   UNK   H50   50     0.058700      1.00800 ; qtot -3.954
    51   h1     1   UNK   H51   51     0.058700      1.00800 ; qtot -3.895
    52   h1     1   UNK   H52   52     0.092700      1.00800 ; qtot -3.802
    53   h1     1   UNK   H53   53     0.120700      1.00800 ; qtot -3.682
    54   h1     1   UNK   H54   54     0.120700      1.00800 ; qtot -3.561
    55   hc     1   UNK   H55   55     0.069700      1.00800 ; qtot -3.491
    56   hn     1   UNK   H56   56     0.302500      1.00800 ; qtot -3.189
    57   hn     1   UNK   H57   57     0.312500      1.00800 ; qtot -2.876
    58   h1     1   UNK   H58   58     0.064700      1.00800 ; qtot -2.812
    59   hc     1   UNK   H59   59     0.036867      1.00800 ; qtot -2.775
    60   hc     1   UNK   H60   60     0.036867      1.00800 ; qtot -2.738
    61   hc     1   UNK   H61   61     0.036867      1.00800 ; qtot -2.701
    62   hc     1   UNK   H62   62     0.036867      1.00800 ; qtot -2.664
    63   hc     1   UNK   H63   63     0.036867      1.00800 ; qtot -2.627
    64   hc     1   UNK   H64   64     0.036867      1.00800 ; qtot -2.590
    65   hn     1   UNK   H65   65     0.370800      1.00800 ; qtot -2.220
    66   hn     1   UNK   H66   66     0.370800      1.00800 ; qtot -1.849
    67   hc     1   UNK   H67   67     0.073700      1.00800 ; qtot -1.775
    68   hc     1   UNK   H68   68     0.073700      1.00800 ; qtot -1.701
    69   hc     1   UNK   H69   69     0.055200      1.00800 ; qtot -1.646
    70   hc     1   UNK   H70   70     0.055200      1.00800 ; qtot -1.591
    71   h1     1   UNK   H71   71     0.079200      1.00800 ; qtot -1.512
    72   h1     1   UNK   H72   72     0.079200      1.00800 ; qtot -1.433
    73   hn     1   UNK   H73   73     0.289200      1.00800 ; qtot -1.143
    74   hn     1   UNK   H74   74     0.289200      1.00800 ; qtot -0.854
    75   hn     1   UNK   H75   75     0.289200      1.00800 ; qtot -0.565
    76   hn     1   UNK   H76   76     0.289200      1.00800 ; qtot -0.276
    77   hn     1   UNK   H77   77     0.275700      1.00800 ; qtot -0.000

[ bonds ]
;   ai     aj funct   r             k
     1     23   1    1.2190e-01    4.9421e+05 ;     O1 - C23   
     2     24   1    1.2190e-01    4.9421e+05 ;     O2 - C24   
     3     26   1    1.2190e-01    4.9421e+05 ;     O3 - C26   
     4     27   1    1.2190e-01    4.9421e+05 ;     O4 - C27   
     5     35   1    1.2190e-01    4.9421e+05 ;     O5 - C35   
     6     35   1    1.2190e-01    4.9421e+05 ;     O6 - C35   
     7     15   1    1.4685e-01    2.1010e+05 ;     N7 - C15   
     7     19   1    1.4685e-01    2.1010e+05 ;     N7 - C19   
     7     24   1    1.3967e-01    2.6565e+05 ;     N7 - C24   
     8     17   1    1.4685e-01    2.1010e+05 ;     N8 - C17   
     8     22   1    1.4685e-01    2.1010e+05 ;     N8 - C22   
     8     26   1    1.3967e-01    2.6565e+05 ;     N8 - C26   
     9     23   1    1.3798e-01    2.8122e+05 ;     N9 - C23   
     9     28   1    1.4556e-01    2.1896e+05 ;     N9 - C28   
     9     56   1    1.0132e-01    3.9630e+05 ;     N9 - H56   
    10     27   1    1.3798e-01    2.8122e+05 ;    N10 - C27   
    10     30   1    1.4556e-01    2.1896e+05 ;    N10 - C30   
    10     57   1    1.0132e-01    3.9630e+05 ;    N10 - H57   
    11     25   1    1.4651e-01    2.1239e+05 ;    N11 - C25   
    11     65   1    1.0192e-01    3.8550e+05 ;    N11 - H65   
    11     66   1    1.0192e-01    3.8550e+05 ;    N11 - H66   
    12     36   1    1.4590e-01    2.1658e+05 ;    N12 - C36   
    12     37   1    1.3381e-01    3.2466e+05 ;    N12 - C37   
    12     77   1    1.0137e-01    3.9538e+05 ;    N12 - H77   
    13     37   1    1.3397e-01    3.2285e+05 ;    N13 - C37   
    13     73   1    1.0114e-01    3.9961e+05 ;    N13 - H73   
    13     74   1    1.0114e-01    3.9961e+05 ;    N13 - H74   
    14     37   1    1.3397e-01    3.2285e+05 ;    N14 - C37   
    14     75   1    1.0114e-01    3.9961e+05 ;    N14 - H75   
    14     76   1    1.0114e-01    3.9961e+05 ;    N14 - H76   
    15     16   1    1.5483e-01    1.8418e+05 ;    C15 - C16   
    15     23   1    1.5346e-01    1.9200e+05 ;    C15 - C23   
    15     38   1    1.0972e-01    2.8768e+05 ;    C15 - H38   
    16     18   1    1.5483e-01    1.8418e+05 ;    C16 - C18   
    16     39   1    1.0954e-01    2.8989e+05 ;    C16 - H39   
    16     40   1    1.0954e-01    2.8989e+05 ;    C16 - H40   
    17     20   1    1.5483e-01    1.8418e+05 ;    C17 - C20   
    17     27   1    1.5346e-01    1.9200e+05 ;    C17 - C27   
    17     41   1    1.0972e-01    2.8768e+05 ;    C17 - H41   
    18     19   1    1.5483e-01    1.8418e+05 ;    C18 - C19   
    18     42   1    1.0954e-01    2.8989e+05 ;    C18 - H42   
    18     43   1    1.0954e-01    2.8989e+05 ;    C18 - H43   
    19     44   1    1.0972e-01    2.8768e+05 ;    C19 - H44   
    19     45   1    1.0972e-01    2.8768e+05 ;    C19 - H45   
    20     21   1    1.5483e-01    1.8418e+05 ;    C20 - C21   
    20     46   1    1.0954e-01    2.8989e+05 ;    C20 - H46   
    20     47   1    1.0954e-01    2.8989e+05 ;    C20 - H47   
    21     22   1    1.5483e-01    1.8418e+05 ;    C21 - C22   
    21     48   1    1.0954e-01    2.8989e+05 ;    C21 - H48   
    21     49   1    1.0954e-01    2.8989e+05 ;    C21 - H49   
    22     50   1    1.0972e-01    2.8768e+05 ;    C22 - H50   
    22     51   1    1.0972e-01    2.8768e+05 ;    C22 - H51   
    24     25   1    1.5270e-01    1.9652e+05 ;    C24 - C25   
    25     29   1    1.5354e-01    1.9154e+05 ;    C25 - C29   
    25     52   1    1.0969e-01    2.8804e+05 ;    C25 - H52   
    26     28   1    1.5270e-01    1.9652e+05 ;    C26 - C28   
    28     53   1    1.0969e-01    2.8804e+05 ;    C28 - H53   
    28     54   1    1.0969e-01    2.8804e+05 ;    C28 - H54   
    29     31   1    1.5354e-01    1.9154e+05 ;    C29 - C31   
    29     32   1    1.5354e-01    1.9154e+05 ;    C29 - C32   
    29     55   1    1.0962e-01    2.8891e+05 ;    C29 - H55   
    30     33   1    1.5354e-01    1.9154e+05 ;    C30 - C33   
    30     35   1    1.5270e-01    1.9652e+05 ;    C30 - C35   
    30     58   1    1.0969e-01    2.8804e+05 ;    C30 - H58   
    31     59   1    1.0962e-01    2.8891e+05 ;    C31 - H59   
    31     60   1    1.0962e-01    2.8891e+05 ;    C31 - H60   
    31     61   1    1.0962e-01    2.8891e+05 ;    C31 - H61   
    32     62   1    1.0962e-01    2.8891e+05 ;    C32 - H62   
    32     63   1    1.0962e-01    2.8891e+05 ;    C32 - H63   
    32     64   1    1.0962e-01    2.8891e+05 ;    C32 - H64   
    33     34   1    1.5354e-01    1.9154e+05 ;    C33 - C34   
    33     67   1    1.0962e-01    2.8891e+05 ;    C33 - H67   
    33     68   1    1.0962e-01    2.8891e+05 ;    C33 - H68   
    34     36   1    1.5354e-01    1.9154e+05 ;    C34 - C36   
    34     69   1    1.0962e-01    2.8891e+05 ;    C34 - H69   
    34     70   1    1.0962e-01    2.8891e+05 ;    C34 - H70   
    36     71   1    1.0969e-01    2.8804e+05 ;    C36 - H71   
    36     72   1    1.0969e-01    2.8804e+05 ;    C36 - H72   

[ pairs ]
;   ai     aj    funct
     1      7      1 ;     O1 - N7    
     1     16      1 ;     O1 - C16   
     1     28      1 ;     O1 - C28   
     1     38      1 ;     O1 - H38   
     1     56      1 ;     O1 - H56   
     2     11      1 ;     O2 - N11   
     2     15      1 ;     O2 - C15   
     2     19      1 ;     O2 - C19   
     2     29      1 ;     O2 - C29   
     2     52      1 ;     O2 - H52   
     3      9      1 ;     O3 - N9    
     3     17      1 ;     O3 - C17   
     3     22      1 ;     O3 - C22   
     3     53      1 ;     O3 - H53   
     3     54      1 ;     O3 - H54   
     4      8      1 ;     O4 - N8    
     4     20      1 ;     O4 - C20   
     4     30      1 ;     O4 - C30   
     4     41      1 ;     O4 - H41   
     4     57      1 ;     O4 - H57   
     5     10      1 ;     O5 - N10   
     5     33      1 ;     O5 - C33   
     5     58      1 ;     O5 - H58   
     6     10      1 ;     O6 - N10   
     6     33      1 ;     O6 - C33   
     6     58      1 ;     O6 - H58   
     7      9      1 ;     N7 - N9    
     7     11      1 ;     N7 - N11   
     7     29      1 ;     N7 - C29   
     7     39      1 ;     N7 - H39   
     7     40      1 ;     N7 - H40   
     7     42      1 ;     N7 - H42   
     7     43      1 ;     N7 - H43   
     7     52      1 ;     N7 - H52   
     8      9      1 ;     N8 - N9    
     8     10      1 ;     N8 - N10   
     8     46      1 ;     N8 - H46   
     8     47      1 ;     N8 - H47   
     8     48      1 ;     N8 - H48   
     8     49      1 ;     N8 - H49   
     8     53      1 ;     N8 - H53   
     8     54      1 ;     N8 - H54   
     9     16      1 ;     N9 - C16   
     9     38      1 ;     N9 - H38   
    10     20      1 ;    N10 - C20   
    10     34      1 ;    N10 - C34   
    10     41      1 ;    N10 - H41   
    10     67      1 ;    N10 - H67   
    10     68      1 ;    N10 - H68   
    11     31      1 ;    N11 - C31   
    11     32      1 ;    N11 - C32   
    11     55      1 ;    N11 - H55   
    12     33      1 ;    N12 - C33   
    12     69      1 ;    N12 - H69   
    12     70      1 ;    N12 - H70   
    12     73      1 ;    N12 - H73   
    12     74      1 ;    N12 - H74   
    12     75      1 ;    N12 - H75   
    12     76      1 ;    N12 - H76   
    13     36      1 ;    N13 - C36   
    13     75      1 ;    N13 - H75   
    13     76      1 ;    N13 - H76   
    13     77      1 ;    N13 - H77   
    14     36      1 ;    N14 - C36   
    14     73      1 ;    N14 - H73   
    14     74      1 ;    N14 - H74   
    14     77      1 ;    N14 - H77   
    15     25      1 ;    C15 - C25   
    15     28      1 ;    C15 - C28   
    15     42      1 ;    C15 - H42   
    15     43      1 ;    C15 - H43   
    15     44      1 ;    C15 - H44   
    15     45      1 ;    C15 - H45   
    15     56      1 ;    C15 - H56   
    16     24      1 ;    C16 - C24   
    16     44      1 ;    C16 - H44   
    16     45      1 ;    C16 - H45   
    17     28      1 ;    C17 - C28   
    17     30      1 ;    C17 - C30   
    17     48      1 ;    C17 - H48   
    17     49      1 ;    C17 - H49   
    17     50      1 ;    C17 - H50   
    17     51      1 ;    C17 - H51   
    17     57      1 ;    C17 - H57   
    18     23      1 ;    C18 - C23   
    18     24      1 ;    C18 - C24   
    18     38      1 ;    C18 - H38   
    19     23      1 ;    C19 - C23   
    19     25      1 ;    C19 - C25   
    19     38      1 ;    C19 - H38   
    19     39      1 ;    C19 - H39   
    19     40      1 ;    C19 - H40   
    20     26      1 ;    C20 - C26   
    20     50      1 ;    C20 - H50   
    20     51      1 ;    C20 - H51   
    21     26      1 ;    C21 - C26   
    21     27      1 ;    C21 - C27   
    21     41      1 ;    C21 - H41   
    22     27      1 ;    C22 - C27   
    22     28      1 ;    C22 - C28   
    22     41      1 ;    C22 - H41   
    22     46      1 ;    C22 - H46   
    22     47      1 ;    C22 - H47   
    23     24      1 ;    C23 - C24   
    23     26      1 ;    C23 - C26   
    23     39      1 ;    C23 - H39   
    23     40      1 ;    C23 - H40   
    23     53      1 ;    C23 - H53   
    23     54      1 ;    C23 - H54   
    24     31      1 ;    C24 - C31   
    24     32      1 ;    C24 - C32   
    24     38      1 ;    C24 - H38   
    24     44      1 ;    C24 - H44   
    24     45      1 ;    C24 - H45   
    24     55      1 ;    C24 - H55   
    24     65      1 ;    C24 - H65   
    24     66      1 ;    C24 - H66   
    25     59      1 ;    C25 - H59   
    25     60      1 ;    C25 - H60   
    25     61      1 ;    C25 - H61   
    25     62      1 ;    C25 - H62   
    25     63      1 ;    C25 - H63   
    25     64      1 ;    C25 - H64   
    26     27      1 ;    C26 - C27   
    26     41      1 ;    C26 - H41   
    26     50      1 ;    C26 - H50   
    26     51      1 ;    C26 - H51   
    26     56      1 ;    C26 - H56   
    27     33      1 ;    C27 - C33   
    27     35      1 ;    C27 - C35   
    27     46      1 ;    C27 - H46   
    27     47      1 ;    C27 - H47   
    27     58      1 ;    C27 - H58   
    29     65      1 ;    C29 - H65   
    29     66      1 ;    C29 - H66   
    30     36      1 ;    C30 - C36   
    30     69      1 ;    C30 - H69   
    30     70      1 ;    C30 - H70   
    31     52      1 ;    C31 - H52   
    31     62      1 ;    C31 - H62   
    31     63      1 ;    C31 - H63   
    31     64      1 ;    C31 - H64   
    32     52      1 ;    C32 - H52   
    32     59      1 ;    C32 - H59   
    32     60      1 ;    C32 - H60   
    32     61      1 ;    C32 - H61   
    33     57      1 ;    C33 - H57   
    33     71      1 ;    C33 - H71   
    33     72      1 ;    C33 - H72   
    34     35      1 ;    C34 - C35   
    34     37      1 ;    C34 - C37   
    34     58      1 ;    C34 - H58   
    34     77      1 ;    C34 - H77   
    35     57      1 ;    C35 - H57   
    35     67      1 ;    C35 - H67   
    35     68      1 ;    C35 - H68   
    36     67      1 ;    C36 - H67   
    36     68      1 ;    C36 - H68   
    37     71      1 ;    C37 - H71   
    37     72      1 ;    C37 - H72   
    38     39      1 ;    H38 - H39   
    38     40      1 ;    H38 - H40   
    39     42      1 ;    H39 - H42   
    39     43      1 ;    H39 - H43   
    40     42      1 ;    H40 - H42   
    40     43      1 ;    H40 - H43   
    41     46      1 ;    H41 - H46   
    41     47      1 ;    H41 - H47   
    42     44      1 ;    H42 - H44   
    42     45      1 ;    H42 - H45   
    43     44      1 ;    H43 - H44   
    43     45      1 ;    H43 - H45   
    46     48      1 ;    H46 - H48   
    46     49      1 ;    H46 - H49   
    47     48      1 ;    H47 - H48   
    47     49      1 ;    H47 - H49   
    48     50      1 ;    H48 - H50   
    48     51      1 ;    H48 - H51   
    49     50      1 ;    H49 - H50   
    49     51      1 ;    H49 - H51   
    52     55      1 ;    H52 - H55   
    52     65      1 ;    H52 - H65   
    52     66      1 ;    H52 - H66   
    53     56      1 ;    H53 - H56   
    54     56      1 ;    H54 - H56   
    55     59      1 ;    H55 - H59   
    55     60      1 ;    H55 - H60   
    55     61      1 ;    H55 - H61   
    55     62      1 ;    H55 - H62   
    55     63      1 ;    H55 - H63   
    55     64      1 ;    H55 - H64   
    57     58      1 ;    H57 - H58   
    58     67      1 ;    H58 - H67   
    58     68      1 ;    H58 - H68   
    67     69      1 ;    H67 - H69   
    67     70      1 ;    H67 - H70   
    68     69      1 ;    H68 - H69   
    68     70      1 ;    H68 - H70   
    69     71      1 ;    H69 - H71   
    69     72      1 ;    H69 - H72   
    70     71      1 ;    H70 - H71   
    70     72      1 ;    H70 - H72   
    71     77      1 ;    H71 - H77   
    72     77      1 ;    H72 - H77   

[ angles ]
;   ai     aj     ak    funct   theta         cth
     1     23      9      1    1.2305e+02    7.2977e+02 ;     O1 - C23    - N9    
     1     23     15      1    1.2567e+02    6.3019e+02 ;     O1 - C23    - C15   
     2     24      7      1    1.2257e+02    7.2534e+02 ;     O2 - C24    - N7    
     2     24     25      1    1.2290e+02    6.3973e+02 ;     O2 - C24    - C25   
     3     26      8      1    1.2257e+02    7.2534e+02 ;     O3 - C26    - N8    
     3     26     28      1    1.2290e+02    6.3973e+02 ;     O3 - C26    - C28   
     4     27     10      1    1.2305e+02    7.2977e+02 ;     O4 - C27    - N10   
     4     27     17      1    1.2567e+02    6.3019e+02 ;     O4 - C27    - C17   
     5     35      6      1    1.3016e+02    8.7814e+02 ;     O5 - C35    - O6    
     5     35     30      1    1.2290e+02    6.3973e+02 ;     O5 - C35    - C30   
     6     35     30      1    1.2290e+02    6.3973e+02 ;     O6 - C35    - C30   
     7     15     16      1    1.0366e+02    5.6350e+02 ;     N7 - C15    - C16   
     7     15     23      1    1.1162e+02    5.4576e+02 ;     N7 - C15    - C23   
     7     15     38      1    1.1052e+02    3.9815e+02 ;     N7 - C15    - H38   
     7     19     18      1    1.0366e+02    5.6350e+02 ;     N7 - C19    - C18   
     7     19     44      1    1.1052e+02    3.9815e+02 ;     N7 - C19    - H44   
     7     19     45      1    1.1052e+02    3.9815e+02 ;     N7 - C19    - H45   
     7     24     25      1    1.1716e+02    5.4551e+02 ;     N7 - C24    - C25   
     8     17     20      1    1.0366e+02    5.6350e+02 ;     N8 - C17    - C20   
     8     17     27      1    1.1162e+02    5.4576e+02 ;     N8 - C17    - C27   
     8     17     41      1    1.1052e+02    3.9815e+02 ;     N8 - C17    - H41   
     8     22     21      1    1.0366e+02    5.6350e+02 ;     N8 - C22    - C21   
     8     22     50      1    1.1052e+02    3.9815e+02 ;     N8 - C22    - H50   
     8     22     51      1    1.1052e+02    3.9815e+02 ;     N8 - C22    - H51   
     8     26     28      1    1.1716e+02    5.4551e+02 ;     N8 - C26    - C28   
     9     23     15      1    1.0713e+02    5.7137e+02 ;     N9 - C23    - C15   
     9     28     26      1    1.0794e+02    5.5873e+02 ;     N9 - C28    - C26   
     9     28     53      1    1.0849e+02    4.0493e+02 ;     N9 - C28    - H53   
     9     28     54      1    1.0849e+02    4.0493e+02 ;     N9 - C28    - H54   
    10     27     17      1    1.0713e+02    5.7137e+02 ;    N10 - C27    - C17   
    10     30     33      1    1.1169e+02    5.4752e+02 ;    N10 - C30    - C33   
    10     30     35      1    1.0794e+02    5.5873e+02 ;    N10 - C30    - C35   
    10     30     58      1    1.0849e+02    4.0493e+02 ;    N10 - C30    - H58   
    11     25     24      1    1.1096e+02    5.4944e+02 ;    N11 - C25    - C24   
    11     25     29      1    1.1091e+02    5.4794e+02 ;    N11 - C25    - C29   
    11     25     52      1    1.0812e+02    4.0342e+02 ;    N11 - C25    - H52   
    12     36     34      1    1.1053e+02    5.4986e+02 ;    N12 - C36    - C34   
    12     36     71      1    1.0966e+02    4.0200e+02 ;    N12 - C36    - H71   
    12     36     72      1    1.0966e+02    4.0200e+02 ;    N12 - C36    - H72   
    12     37     13      1    1.2026e+02    6.2660e+02 ;    N12 - C37    - N13   
    12     37     14      1    1.2026e+02    6.2660e+02 ;    N12 - C37    - N14   
    13     37     14      1    1.1957e+02    6.2802e+02 ;    N13 - C37    - N14   
    15      7     19      1    1.1201e+02    6.4919e+02 ;    C15 - N7     - C19   
    15      7     24      1    1.1850e+02    6.4618e+02 ;    C15 - N7     - C24   
    15     16     18      1    1.0383e+02    5.1748e+02 ;    C15 - C16    - C18   
    15     16     39      1    1.1117e+02    3.5690e+02 ;    C15 - C16    - H39   
    15     16     40      1    1.1117e+02    3.5690e+02 ;    C15 - C16    - H40   
    16     15     23      1    1.0786e+02    5.0995e+02 ;    C16 - C15    - C23   
    16     15     38      1    1.1117e+02    3.5690e+02 ;    C16 - C15    - H38   
    16     18     19      1    1.0383e+02    5.1748e+02 ;    C16 - C18    - C19   
    16     18     42      1    1.1117e+02    3.5690e+02 ;    C16 - C18    - H42   
    16     18     43      1    1.1117e+02    3.5690e+02 ;    C16 - C18    - H43   
    17      8     22      1    1.1201e+02    6.4919e+02 ;    C17 - N8     - C22   
    17      8     26      1    1.1850e+02    6.4618e+02 ;    C17 - N8     - C26   
    17     20     21      1    1.0383e+02    5.1748e+02 ;    C17 - C20    - C21   
    17     20     46      1    1.1117e+02    3.5690e+02 ;    C17 - C20    - H46   
    17     20     47      1    1.1117e+02    3.5690e+02 ;    C17 - C20    - H47   
    18     16     39      1    1.1117e+02    3.5690e+02 ;    C18 - C16    - H39   
    18     16     40      1    1.1117e+02    3.5690e+02 ;    C18 - C16    - H40   
    18     19     44      1    1.1117e+02    3.5690e+02 ;    C18 - C19    - H44   
    18     19     45      1    1.1117e+02    3.5690e+02 ;    C18 - C19    - H45   
    19      7     24      1    1.1850e+02    6.4618e+02 ;    C19 - N7     - C24   
    19     18     42      1    1.1117e+02    3.5690e+02 ;    C19 - C18    - H42   
    19     18     43      1    1.1117e+02    3.5690e+02 ;    C19 - C18    - H43   
    20     17     27      1    1.0786e+02    5.0995e+02 ;    C20 - C17    - C27   
    20     17     41      1    1.1117e+02    3.5690e+02 ;    C20 - C17    - H41   
    20     21     22      1    1.0383e+02    5.1748e+02 ;    C20 - C21    - C22   
    20     21     48      1    1.1117e+02    3.5690e+02 ;    C20 - C21    - H48   
    20     21     49      1    1.1117e+02    3.5690e+02 ;    C20 - C21    - H49   
    21     20     46      1    1.1117e+02    3.5690e+02 ;    C21 - C20    - H46   
    21     20     47      1    1.1117e+02    3.5690e+02 ;    C21 - C20    - H47   
    21     22     50      1    1.1117e+02    3.5690e+02 ;    C21 - C22    - H50   
    21     22     51      1    1.1117e+02    3.5690e+02 ;    C21 - C22    - H51   
    22      8     26      1    1.1850e+02    6.4618e+02 ;    C22 - N8     - C26   
    22     21     48      1    1.1117e+02    3.5690e+02 ;    C22 - C21    - H48   
    22     21     49      1    1.1117e+02    3.5690e+02 ;    C22 - C21    - H49   
    23      9     28      1    1.2196e+02    6.4350e+02 ;    C23 - N9     - C28   
    23      9     56      1    1.1726e+02    4.8007e+02 ;    C23 - N9     - H56   
    23     15     38      1    1.0855e+02    3.6409e+02 ;    C23 - C15    - H38   
    24     25     29      1    1.1143e+02    5.0509e+02 ;    C24 - C25    - C29   
    24     25     52      1    1.0837e+02    3.6602e+02 ;    C24 - C25    - H52   
    25     11     65      1    1.0961e+02    4.7003e+02 ;    C25 - N11    - H65   
    25     11     66      1    1.0961e+02    4.7003e+02 ;    C25 - N11    - H66   
    25     29     31      1    1.1263e+02    5.0099e+02 ;    C25 - C29    - C31   
    25     29     32      1    1.1263e+02    5.0099e+02 ;    C25 - C29    - C32   
    25     29     55      1    1.0968e+02    3.6208e+02 ;    C25 - C29    - H55   
    26     28     53      1    1.0837e+02    3.6602e+02 ;    C26 - C28    - H53   
    26     28     54      1    1.0837e+02    3.6602e+02 ;    C26 - C28    - H54   
    27     10     30      1    1.2196e+02    6.4350e+02 ;    C27 - N10    - C30   
    27     10     57      1    1.1726e+02    4.8007e+02 ;    C27 - N10    - H57   
    27     17     41      1    1.0855e+02    3.6409e+02 ;    C27 - C17    - H41   
    28      9     56      1    1.1742e+02    4.5706e+02 ;    C28 - N9     - H56   
    29     25     52      1    1.0959e+02    3.6217e+02 ;    C29 - C25    - H52   
    29     31     59      1    1.0968e+02    3.6208e+02 ;    C29 - C31    - H59   
    29     31     60      1    1.0968e+02    3.6208e+02 ;    C29 - C31    - H60   
    29     31     61      1    1.0968e+02    3.6208e+02 ;    C29 - C31    - H61   
    29     32     62      1    1.0968e+02    3.6208e+02 ;    C29 - C32    - H62   
    29     32     63      1    1.0968e+02    3.6208e+02 ;    C29 - C32    - H63   
    29     32     64      1    1.0968e+02    3.6208e+02 ;    C29 - C32    - H64   
    30     10     57      1    1.1742e+02    4.5706e+02 ;    C30 - N10    - H57   
    30     33     34      1    1.1263e+02    5.0099e+02 ;    C30 - C33    - C34   
    30     33     67      1    1.0968e+02    3.6208e+02 ;    C30 - C33    - H67   
    30     33     68      1    1.0968e+02    3.6208e+02 ;    C30 - C33    - H68   
    31     29     32      1    1.1263e+02    5.0099e+02 ;    C31 - C29    - C32   
    31     29     55      1    1.0968e+02    3.6208e+02 ;    C31 - C29    - H55   
    32     29     55      1    1.0968e+02    3.6208e+02 ;    C32 - C29    - H55   
    33     30     35      1    1.1143e+02    5.0509e+02 ;    C33 - C30    - C35   
    33     30     58      1    1.0959e+02    3.6217e+02 ;    C33 - C30    - H58   
    33     34     36      1    1.1263e+02    5.0099e+02 ;    C33 - C34    - C36   
    33     34     69      1    1.0968e+02    3.6208e+02 ;    C33 - C34    - H69   
    33     34     70      1    1.0968e+02    3.6208e+02 ;    C33 - C34    - H70   
    34     33     67      1    1.0968e+02    3.6208e+02 ;    C34 - C33    - H67   
    34     33     68      1    1.0968e+02    3.6208e+02 ;    C34 - C33    - H68   
    34     36     71      1    1.0959e+02    3.6217e+02 ;    C34 - C36    - H71   
    34     36     72      1    1.0959e+02    3.6217e+02 ;    C34 - C36    - H72   
    35     30     58      1    1.0837e+02    3.6602e+02 ;    C35 - C30    - H58   
    36     12     37      1    1.2566e+02    6.4116e+02 ;    C36 - N12    - C37   
    36     12     77      1    1.1531e+02    4.6024e+02 ;    C36 - N12    - H77   
    36     34     69      1    1.0968e+02    3.6208e+02 ;    C36 - C34    - H69   
    36     34     70      1    1.0968e+02    3.6208e+02 ;    C36 - C34    - H70   
    37     12     77      1    1.1761e+02    4.9212e+02 ;    C37 - N12    - H77   
    37     13     73      1    1.2138e+02    4.8409e+02 ;    C37 - N13    - H73   
    37     13     74      1    1.2138e+02    4.8409e+02 ;    C37 - N13    - H74   
    37     14     75      1    1.2138e+02    4.8409e+02 ;    C37 - N14    - H75   
    37     14     76      1    1.2138e+02    4.8409e+02 ;    C37 - N14    - H76   
    39     16     40      1    1.0722e+02    3.0049e+02 ;    H39 - C16    - H40   
    42     18     43      1    1.0722e+02    3.0049e+02 ;    H42 - C18    - H43   
    44     19     45      1    1.0813e+02    2.9874e+02 ;    H44 - C19    - H45   
    46     20     47      1    1.0722e+02    3.0049e+02 ;    H46 - C20    - H47   
    48     21     49      1    1.0722e+02    3.0049e+02 ;    H48 - C21    - H49   
    50     22     51      1    1.0813e+02    2.9874e+02 ;    H50 - C22    - H51   
    53     28     54      1    1.0855e+02    2.9824e+02 ;    H53 - C28    - H54   
    59     31     60      1    1.0773e+02    2.9957e+02 ;    H59 - C31    - H60   
    59     31     61      1    1.0773e+02    2.9957e+02 ;    H59 - C31    - H61   
    60     31     61      1    1.0773e+02    2.9957e+02 ;    H60 - C31    - H61   
    62     32     63      1    1.0773e+02    2.9957e+02 ;    H62 - C32    - H63   
    62     32     64      1    1.0773e+02    2.9957e+02 ;    H62 - C32    - H64   
    63     32     64      1    1.0773e+02    2.9957e+02 ;    H63 - C32    - H64   
    65     11     66      1    1.0638e+02    4.0074e+02 ;    H65 - N11    - H66   
    67     33     68      1    1.0773e+02    2.9957e+02 ;    H67 - C33    - H68   
    69     34     70      1    1.0773e+02    2.9957e+02 ;    H69 - C34    - H70   
    71     36     72      1    1.0855e+02    2.9824e+02 ;    H71 - C36    - H72   
    73     13     74      1    1.1528e+02    3.8794e+02 ;    H73 - N13    - H74   
    75     14     76      1    1.1528e+02    3.8794e+02 ;    H75 - N14    - H76   

[ dihedrals ] ; propers
; for gromacs 4.5 or higher, using funct 9
;    i      j      k      l   func   phase     kd      pn
     1     23      9     28      9   180.00  10.46000   2 ;     O1-   C23-    N9-   C28
     1     23      9     56      9     0.00   8.36800   1 ;     O1-   C23-    N9-   H56
     1     23      9     56      9   180.00  10.46000   2 ;     O1-   C23-    N9-   H56
     1     23     15      7      9   180.00   0.00000   2 ;     O1-   C23-   C15-    N7
     1     23     15     16      9     0.00   2.84512   1 ;     O1-   C23-   C15-   C16
     1     23     15     16      9   180.00   0.83680   2 ;     O1-   C23-   C15-   C16
     1     23     15     16      9   180.00   1.84096   3 ;     O1-   C23-   C15-   C16
     1     23     15     38      9     0.00   3.34720   1 ;     O1-   C23-   C15-   H38
     1     23     15     38      9   180.00   0.33472   3 ;     O1-   C23-   C15-   H38
     2     24      7     15      9   180.00  10.46000   2 ;     O2-   C24-    N7-   C15
     2     24      7     19      9   180.00  10.46000   2 ;     O2-   C24-    N7-   C19
     2     24     25     11      9   180.00   0.00000   2 ;     O2-   C24-   C25-   N11
     2     24     25     29      9     0.00   2.84512   1 ;     O2-   C24-   C25-   C29
     2     24     25     29      9   180.00   0.83680   2 ;     O2-   C24-   C25-   C29
     2     24     25     29      9   180.00   1.84096   3 ;     O2-   C24-   C25-   C29
     2     24     25     52      9     0.00   3.34720   1 ;     O2-   C24-   C25-   H52
     2     24     25     52      9   180.00   0.33472   3 ;     O2-   C24-   C25-   H52
     3     26      8     17      9   180.00  10.46000   2 ;     O3-   C26-    N8-   C17
     3     26      8     22      9   180.00  10.46000   2 ;     O3-   C26-    N8-   C22
     3     26     28      9      9   180.00   0.00000   2 ;     O3-   C26-   C28-    N9
     3     26     28     53      9     0.00   3.34720   1 ;     O3-   C26-   C28-   H53
     3     26     28     53      9   180.00   0.33472   3 ;     O3-   C26-   C28-   H53
     3     26     28     54      9     0.00   3.34720   1 ;     O3-   C26-   C28-   H54
     3     26     28     54      9   180.00   0.33472   3 ;     O3-   C26-   C28-   H54
     4     27     10     30      9   180.00  10.46000   2 ;     O4-   C27-   N10-   C30
     4     27     10     57      9     0.00   8.36800   1 ;     O4-   C27-   N10-   H57
     4     27     10     57      9   180.00  10.46000   2 ;     O4-   C27-   N10-   H57
     4     27     17      8      9   180.00   0.00000   2 ;     O4-   C27-   C17-    N8
     4     27     17     20      9     0.00   2.84512   1 ;     O4-   C27-   C17-   C20
     4     27     17     20      9   180.00   0.83680   2 ;     O4-   C27-   C17-   C20
     4     27     17     20      9   180.00   1.84096   3 ;     O4-   C27-   C17-   C20
     4     27     17     41      9     0.00   3.34720   1 ;     O4-   C27-   C17-   H41
     4     27     17     41      9   180.00   0.33472   3 ;     O4-   C27-   C17-   H41
     5     35     30     10      9   180.00   0.00000   2 ;     O5-   C35-   C30-   N10
     5     35     30     33      9     0.00   2.84512   1 ;     O5-   C35-   C30-   C33
     5     35     30     33      9   180.00   0.83680   2 ;     O5-   C35-   C30-   C33
     5     35     30     33      9   180.00   1.84096   3 ;     O5-   C35-   C30-   C33
     5     35     30     58      9     0.00   3.34720   1 ;     O5-   C35-   C30-   H58
     5     35     30     58      9   180.00   0.33472   3 ;     O5-   C35-   C30-   H58
     6     35     30     10      9   180.00   0.00000   2 ;     O6-   C35-   C30-   N10
     6     35     30     33      9     0.00   2.84512   1 ;     O6-   C35-   C30-   C33
     6     35     30     33      9   180.00   0.83680   2 ;     O6-   C35-   C30-   C33
     6     35     30     33      9   180.00   1.84096   3 ;     O6-   C35-   C30-   C33
     6     35     30     58      9     0.00   3.34720   1 ;     O6-   C35-   C30-   H58
     6     35     30     58      9   180.00   0.33472   3 ;     O6-   C35-   C30-   H58
     7     15     16     18      9     0.00   0.41840   3 ;     N7-   C15-   C16-   C18
     7     15     16     39      9     0.00   0.65084   3 ;     N7-   C15-   C16-   H39
     7     15     16     40      9     0.00   0.65084   3 ;     N7-   C15-   C16-   H40
     7     15     23      9      9   180.00   0.41840   1 ;     N7-   C15-   C23-    N9
     7     15     23      9      9   180.00   8.87008   2 ;     N7-   C15-   C23-    N9
     7     19     18     16      9     0.00   0.41840   3 ;     N7-   C19-   C18-   C16
     7     19     18     42      9     0.00   0.65084   3 ;     N7-   C19-   C18-   H42
     7     19     18     43      9     0.00   0.65084   3 ;     N7-   C19-   C18-   H43
     7     24     25     11      9   180.00   0.00000   2 ;     N7-   C24-   C25-   N11
     7     24     25     29      9   180.00   0.00000   4 ;     N7-   C24-   C25-   C29
     7     24     25     29      9   180.00   2.97064   2 ;     N7-   C24-   C25-   C29
     7     24     25     52      9   180.00   0.00000   2 ;     N7-   C24-   C25-   H52
     8     17     20     21      9     0.00   0.41840   3 ;     N8-   C17-   C20-   C21
     8     17     20     46      9     0.00   0.65084   3 ;     N8-   C17-   C20-   H46
     8     17     20     47      9     0.00   0.65084   3 ;     N8-   C17-   C20-   H47
     8     17     27     10      9   180.00   0.41840   1 ;     N8-   C17-   C27-   N10
     8     17     27     10      9   180.00   8.87008   2 ;     N8-   C17-   C27-   N10
     8     22     21     20      9     0.00   0.41840   3 ;     N8-   C22-   C21-   C20
     8     22     21     48      9     0.00   0.65084   3 ;     N8-   C22-   C21-   H48
     8     22     21     49      9     0.00   0.65084   3 ;     N8-   C22-   C21-   H49
     8     26     28      9      9   180.00   0.41840   1 ;     N8-   C26-   C28-    N9
     8     26     28      9      9   180.00   8.87008   2 ;     N8-   C26-   C28-    N9
     8     26     28     53      9   180.00   0.00000   2 ;     N8-   C26-   C28-   H53
     8     26     28     54      9   180.00   0.00000   2 ;     N8-   C26-   C28-   H54
     9     23     15     16      9   180.00   4.39320   3 ;     N9-   C23-   C15-   C16
     9     23     15     38      9   180.00   0.00000   2 ;     N9-   C23-   C15-   H38
    10     27     17     20      9   180.00   4.39320   3 ;    N10-   C27-   C17-   C20
    10     27     17     41      9   180.00   0.00000   2 ;    N10-   C27-   C17-   H41
    10     30     33     34      9   180.00   0.96232   2 ;    N10-   C30-   C33-   C34
    10     30     33     67      9     0.00   0.65084   3 ;    N10-   C30-   C33-   H67
    10     30     33     68      9     0.00   0.65084   3 ;    N10-   C30-   C33-   H68
    11     25     29     31      9     0.00   2.17568   3 ;    N11-   C25-   C29-   C31
    11     25     29     32      9     0.00   2.17568   3 ;    N11-   C25-   C29-   C32
    11     25     29     55      9     0.00   0.20920   3 ;    N11-   C25-   C29-   H55
    12     36     34     33      9     0.00   2.80328   1 ;    N12-   C36-   C34-   C33
    12     36     34     69      9     0.00   0.65084   3 ;    N12-   C36-   C34-   H69
    12     36     34     70      9     0.00   0.65084   3 ;    N12-   C36-   C34-   H70
    12     37     13     73      9   180.00   2.82420   2 ;    N12-   C37-   N13-   H73
    12     37     13     74      9   180.00   2.82420   2 ;    N12-   C37-   N13-   H74
    12     37     14     75      9   180.00   2.82420   2 ;    N12-   C37-   N14-   H75
    12     37     14     76      9   180.00   2.82420   2 ;    N12-   C37-   N14-   H76
    13     37     12     36      9   180.00   2.82420   2 ;    N13-   C37-   N12-   C36
    13     37     12     77      9   180.00   2.82420   2 ;    N13-   C37-   N12-   H77
    13     37     14     75      9   180.00   2.82420   2 ;    N13-   C37-   N14-   H75
    13     37     14     76      9   180.00   2.82420   2 ;    N13-   C37-   N14-   H76
    14     37     12     36      9   180.00   2.82420   2 ;    N14-   C37-   N12-   C36
    14     37     12     77      9   180.00   2.82420   2 ;    N14-   C37-   N12-   H77
    14     37     13     73      9   180.00   2.82420   2 ;    N14-   C37-   N13-   H73
    14     37     13     74      9   180.00   2.82420   2 ;    N14-   C37-   N13-   H74
    15      7     19     18      9     0.00   0.00000   0 ;    C15-    N7-   C19-   C18
    15      7     19     44      9     0.00   0.00000   0 ;    C15-    N7-   C19-   H44
    15      7     19     45      9     0.00   0.00000   0 ;    C15-    N7-   C19-   H45
    15      7     24     25      9     0.00   2.09200   3 ;    C15-    N7-   C24-   C25
    15      7     24     25      9     0.00  12.25912   1 ;    C15-    N7-   C24-   C25
    15      7     24     25      9   180.00   5.89944   2 ;    C15-    N7-   C24-   C25
    15     16     18     19      9     0.00   2.17568   3 ;    C15-   C16-   C18-   C19
    15     16     18     42      9     0.00   0.54392   3 ;    C15-   C16-   C18-   H42
    15     16     18     43      9     0.00   0.54392   3 ;    C15-   C16-   C18-   H43
    15     23      9     28      9     0.00   3.89112   3 ;    C15-   C23-    N9-   C28
    15     23      9     28      9   180.00   2.42672   1 ;    C15-   C23-    N9-   C28
    15     23      9     28      9   180.00   3.80744   2 ;    C15-   C23-    N9-   C28
    15     23      9     56      9   180.00  10.46000   2 ;    C15-   C23-    N9-   H56
    16     15      7     19      9     0.00   0.00000   0 ;    C16-   C15-    N7-   C19
    16     15      7     24      9     0.00   9.45584   1 ;    C16-   C15-    N7-   C24
    16     15      7     24      9   180.00   0.12552   3 ;    C16-   C15-    N7-   C24
    16     15      7     24      9   180.00   2.71960   4 ;    C16-   C15-    N7-   C24
    16     18     19     44      9     0.00   0.65084   3 ;    C16-   C18-   C19-   H44
    16     18     19     45      9     0.00   0.65084   3 ;    C16-   C18-   C19-   H45
    17      8     22     21      9     0.00   0.00000   0 ;    C17-    N8-   C22-   C21
    17      8     22     50      9     0.00   0.00000   0 ;    C17-    N8-   C22-   H50
    17      8     22     51      9     0.00   0.00000   0 ;    C17-    N8-   C22-   H51
    17      8     26     28      9     0.00   2.09200   3 ;    C17-    N8-   C26-   C28
    17      8     26     28      9     0.00  12.25912   1 ;    C17-    N8-   C26-   C28
    17      8     26     28      9   180.00   5.89944   2 ;    C17-    N8-   C26-   C28
    17     20     21     22      9     0.00   2.17568   3 ;    C17-   C20-   C21-   C22
    17     20     21     48      9     0.00   0.54392   3 ;    C17-   C20-   C21-   H48
    17     20     21     49      9     0.00   0.54392   3 ;    C17-   C20-   C21-   H49
    17     27     10     30      9     0.00   3.89112   3 ;    C17-   C27-   N10-   C30
    17     27     10     30      9   180.00   2.42672   1 ;    C17-   C27-   N10-   C30
    17     27     10     30      9   180.00   3.80744   2 ;    C17-   C27-   N10-   C30
    17     27     10     57      9   180.00  10.46000   2 ;    C17-   C27-   N10-   H57
    18     16     15     23      9     0.00   0.00000   0 ;    C18-   C16-   C15-   C23
    18     16     15     23      9     0.00   0.16736   2 ;    C18-   C16-   C15-   C23
    18     16     15     23      9   180.00   1.92464   1 ;    C18-   C16-   C15-   C23
    18     16     15     38      9     0.00   0.65084   3 ;    C18-   C16-   C15-   H38
    18     19      7     24      9     0.00   9.45584   1 ;    C18-   C19-    N7-   C24
    18     19      7     24      9   180.00   0.12552   3 ;    C18-   C19-    N7-   C24
    18     19      7     24      9   180.00   2.71960   4 ;    C18-   C19-    N7-   C24
    19      7     15     23      9     0.00   0.00000   0 ;    C19-    N7-   C15-   C23
    19      7     15     38      9     0.00   0.00000   0 ;    C19-    N7-   C15-   H38
    19      7     24     25      9     0.00   2.09200   3 ;    C19-    N7-   C24-   C25
    19      7     24     25      9     0.00  12.25912   1 ;    C19-    N7-   C24-   C25
    19      7     24     25      9   180.00   5.89944   2 ;    C19-    N7-   C24-   C25
    19     18     16     39      9     0.00   0.54392   3 ;    C19-   C18-   C16-   H39
    19     18     16     40      9     0.00   0.54392   3 ;    C19-   C18-   C16-   H40
    20     17      8     22      9     0.00   0.00000   0 ;    C20-   C17-    N8-   C22
    20     17      8     26      9     0.00   9.45584   1 ;    C20-   C17-    N8-   C26
    20     17      8     26      9   180.00   0.12552   3 ;    C20-   C17-    N8-   C26
    20     17      8     26      9   180.00   2.71960   4 ;    C20-   C17-    N8-   C26
    20     21     22     50      9     0.00   0.65084   3 ;    C20-   C21-   C22-   H50
    20     21     22     51      9     0.00   0.65084   3 ;    C20-   C21-   C22-   H51
    21     20     17     27      9     0.00   0.00000   0 ;    C21-   C20-   C17-   C27
    21     20     17     27      9     0.00   0.16736   2 ;    C21-   C20-   C17-   C27
    21     20     17     27      9   180.00   1.92464   1 ;    C21-   C20-   C17-   C27
    21     20     17     41      9     0.00   0.65084   3 ;    C21-   C20-   C17-   H41
    21     22      8     26      9     0.00   9.45584   1 ;    C21-   C22-    N8-   C26
    21     22      8     26      9   180.00   0.12552   3 ;    C21-   C22-    N8-   C26
    21     22      8     26      9   180.00   2.71960   4 ;    C21-   C22-    N8-   C26
    22      8     17     27      9     0.00   0.00000   0 ;    C22-    N8-   C17-   C27
    22      8     17     41      9     0.00   0.00000   0 ;    C22-    N8-   C17-   H41
    22      8     26     28      9     0.00   2.09200   3 ;    C22-    N8-   C26-   C28
    22      8     26     28      9     0.00  12.25912   1 ;    C22-    N8-   C26-   C28
    22      8     26     28      9   180.00   5.89944   2 ;    C22-    N8-   C26-   C28
    22     21     20     46      9     0.00   0.54392   3 ;    C22-   C21-   C20-   H46
    22     21     20     47      9     0.00   0.54392   3 ;    C22-   C21-   C20-   H47
    23      9     28     26      9     0.00   3.72376   1 ;    C23-    N9-   C28-   C26
    23      9     28     53      9     0.00   0.00000   0 ;    C23-    N9-   C28-   H53
    23      9     28     54      9     0.00   0.00000   0 ;    C23-    N9-   C28-   H54
    23     15      7     24      9     0.00   2.67776   1 ;    C23-   C15-    N7-   C24
    23     15      7     24      9   180.00   1.63176   2 ;    C23-   C15-    N7-   C24
    23     15     16     39      9     0.00   0.65084   3 ;    C23-   C15-   C16-   H39
    23     15     16     40      9     0.00   0.65084   3 ;    C23-   C15-   C16-   H40
    24      7     15     38      9   180.00   0.00000   2 ;    C24-    N7-   C15-   H38
    24      7     19     44      9   180.00   0.00000   2 ;    C24-    N7-   C19-   H44
    24      7     19     45      9   180.00   0.00000   2 ;    C24-    N7-   C19-   H45
    24     25     11     65      9     0.00   1.25520   3 ;    C24-   C25-   N11-   H65
    24     25     11     66      9     0.00   1.25520   3 ;    C24-   C25-   N11-   H66
    24     25     29     31      9     0.00   0.00000   0 ;    C24-   C25-   C29-   C31
    24     25     29     31      9     0.00   0.16736   2 ;    C24-   C25-   C29-   C31
    24     25     29     31      9   180.00   1.92464   1 ;    C24-   C25-   C29-   C31
    24     25     29     32      9     0.00   0.00000   0 ;    C24-   C25-   C29-   C32
    24     25     29     32      9     0.00   0.16736   2 ;    C24-   C25-   C29-   C32
    24     25     29     32      9   180.00   1.92464   1 ;    C24-   C25-   C29-   C32
    24     25     29     55      9     0.00   0.65084   3 ;    C24-   C25-   C29-   H55
    25     29     31     59      9     0.00   0.54392   3 ;    C25-   C29-   C31-   H59
    25     29     31     60      9     0.00   0.54392   3 ;    C25-   C29-   C31-   H60
    25     29     31     61      9     0.00   0.54392   3 ;    C25-   C29-   C31-   H61
    25     29     32     62      9     0.00   0.54392   3 ;    C25-   C29-   C32-   H62
    25     29     32     63      9     0.00   0.54392   3 ;    C25-   C29-   C32-   H63
    25     29     32     64      9     0.00   0.54392   3 ;    C25-   C29-   C32-   H64
    26      8     17     27      9     0.00   2.67776   1 ;    C26-    N8-   C17-   C27
    26      8     17     27      9   180.00   1.63176   2 ;    C26-    N8-   C17-   C27
    26      8     17     41      9   180.00   0.00000   2 ;    C26-    N8-   C17-   H41
    26      8     22     50      9   180.00   0.00000   2 ;    C26-    N8-   C22-   H50
    26      8     22     51      9   180.00   0.00000   2 ;    C26-    N8-   C22-   H51
    26     28      9     56      9     0.00   0.00000   0 ;    C26-   C28-    N9-   H56
    27     10     30     33      9   180.00   4.81160   1 ;    C27-   N10-   C30-   C33
    27     10     30     35      9     0.00   3.72376   1 ;    C27-   N10-   C30-   C35
    27     10     30     58      9     0.00   0.00000   0 ;    C27-   N10-   C30-   H58
    27     17     20     46      9     0.00   0.65084   3 ;    C27-   C17-   C20-   H46
    27     17     20     47      9     0.00   0.65084   3 ;    C27-   C17-   C20-   H47
    29     25     11     65      9   180.00   0.12552   3 ;    C29-   C25-   N11-   H65
    29     25     11     66      9   180.00   0.12552   3 ;    C29-   C25-   N11-   H66
    30     33     34     36      9     0.00   2.17568   3 ;    C30-   C33-   C34-   C36
    30     33     34     69      9     0.00   0.54392   3 ;    C30-   C33-   C34-   H69
    30     33     34     70      9     0.00   0.54392   3 ;    C30-   C33-   C34-   H70
    31     29     25     52      9     0.00   0.65084   3 ;    C31-   C29-   C25-   H52
    31     29     32     62      9     0.00   0.54392   3 ;    C31-   C29-   C32-   H62
    31     29     32     63      9     0.00   0.54392   3 ;    C31-   C29-   C32-   H63
    31     29     32     64      9     0.00   0.54392   3 ;    C31-   C29-   C32-   H64
    32     29     25     52      9     0.00   0.65084   3 ;    C32-   C29-   C25-   H52
    32     29     31     59      9     0.00   0.54392   3 ;    C32-   C29-   C31-   H59
    32     29     31     60      9     0.00   0.54392   3 ;    C32-   C29-   C31-   H60
    32     29     31     61      9     0.00   0.54392   3 ;    C32-   C29-   C31-   H61
    33     30     10     57      9     0.00   0.00000   0 ;    C33-   C30-   N10-   H57
    33     34     36     71      9     0.00   0.65084   3 ;    C33-   C34-   C36-   H71
    33     34     36     72      9     0.00   0.65084   3 ;    C33-   C34-   C36-   H72
    34     33     30     35      9     0.00   0.00000   0 ;    C34-   C33-   C30-   C35
    34     33     30     35      9     0.00   0.16736   2 ;    C34-   C33-   C30-   C35
    34     33     30     35      9   180.00   1.92464   1 ;    C34-   C33-   C30-   C35
    34     33     30     58      9     0.00   0.65084   3 ;    C34-   C33-   C30-   H58
    34     36     12     37      9   180.00   0.61923   2 ;    C34-   C36-   N12-   C37
    34     36     12     77      9     0.00   0.00000   0 ;    C34-   C36-   N12-   H77
    35     30     10     57      9     0.00   0.00000   0 ;    C35-   C30-   N10-   H57
    35     30     33     67      9     0.00   0.65084   3 ;    C35-   C30-   C33-   H67
    35     30     33     68      9     0.00   0.65084   3 ;    C35-   C30-   C33-   H68
    36     34     33     67      9     0.00   0.54392   3 ;    C36-   C34-   C33-   H67
    36     34     33     68      9     0.00   0.54392   3 ;    C36-   C34-   C33-   H68
    37     12     36     71      9     0.00   0.00000   0 ;    C37-   N12-   C36-   H71
    37     12     36     72      9     0.00   0.00000   0 ;    C37-   N12-   C36-   H72
    38     15     16     39      9     0.00   0.65084   3 ;    H38-   C15-   C16-   H39
    38     15     16     40      9     0.00   0.65084   3 ;    H38-   C15-   C16-   H40
    39     16     18     42      9     0.00   0.50208   3 ;    H39-   C16-   C18-   H42
    39     16     18     43      9     0.00   0.50208   3 ;    H39-   C16-   C18-   H43
    40     16     18     42      9     0.00   0.50208   3 ;    H40-   C16-   C18-   H42
    40     16     18     43      9     0.00   0.50208   3 ;    H40-   C16-   C18-   H43
    41     17     20     46      9     0.00   0.65084   3 ;    H41-   C17-   C20-   H46
    41     17     20     47      9     0.00   0.65084   3 ;    H41-   C17-   C20-   H47
    42     18     19     44      9     0.00   0.65084   3 ;    H42-   C18-   C19-   H44
    42     18     19     45      9     0.00   0.65084   3 ;    H42-   C18-   C19-   H45
    43     18     19     44      9     0.00   0.65084   3 ;    H43-   C18-   C19-   H44
    43     18     19     45      9     0.00   0.65084   3 ;    H43-   C18-   C19-   H45
    46     20     21     48      9     0.00   0.50208   3 ;    H46-   C20-   C21-   H48
    46     20     21     49      9     0.00   0.50208   3 ;    H46-   C20-   C21-   H49
    47     20     21     48      9     0.00   0.50208   3 ;    H47-   C20-   C21-   H48
    47     20     21     49      9     0.00   0.50208   3 ;    H47-   C20-   C21-   H49
    48     21     22     50      9     0.00   0.65084   3 ;    H48-   C21-   C22-   H50
    48     21     22     51      9     0.00   0.65084   3 ;    H48-   C21-   C22-   H51
    49     21     22     50      9     0.00   0.65084   3 ;    H49-   C21-   C22-   H50
    49     21     22     51      9     0.00   0.65084   3 ;    H49-   C21-   C22-   H51
    52     25     11     65      9     0.00   1.25520   3 ;    H52-   C25-   N11-   H65
    52     25     11     66      9     0.00   1.25520   3 ;    H52-   C25-   N11-   H66
    52     25     29     55      9     0.00   0.65084   3 ;    H52-   C25-   C29-   H55
    53     28      9     56      9     0.00   0.00000   0 ;    H53-   C28-    N9-   H56
    54     28      9     56      9     0.00   0.00000   0 ;    H54-   C28-    N9-   H56
    55     29     31     59      9     0.00   0.50208   3 ;    H55-   C29-   C31-   H59
    55     29     31     60      9     0.00   0.50208   3 ;    H55-   C29-   C31-   H60
    55     29     31     61      9     0.00   0.50208   3 ;    H55-   C29-   C31-   H61
    55     29     32     62      9     0.00   0.50208   3 ;    H55-   C29-   C32-   H62
    55     29     32     63      9     0.00   0.50208   3 ;    H55-   C29-   C32-   H63
    55     29     32     64      9     0.00   0.50208   3 ;    H55-   C29-   C32-   H64
    57     10     30     58      9     0.00   0.00000   0 ;    H57-   N10-   C30-   H58
    58     30     33     67      9     0.00   0.65084   3 ;    H58-   C30-   C33-   H67
    58     30     33     68      9     0.00   0.65084   3 ;    H58-   C30-   C33-   H68
    67     33     34     69      9     0.00   0.50208   3 ;    H67-   C33-   C34-   H69
    67     33     34     70      9     0.00   0.50208   3 ;    H67-   C33-   C34-   H70
    68     33     34     69      9     0.00   0.50208   3 ;    H68-   C33-   C34-   H69
    68     33     34     70      9     0.00   0.50208   3 ;    H68-   C33-   C34-   H70
    69     34     36     71      9     0.00   0.65084   3 ;    H69-   C34-   C36-   H71
    69     34     36     72      9     0.00   0.65084   3 ;    H69-   C34-   C36-   H72
    70     34     36     71      9     0.00   0.65084   3 ;    H70-   C34-   C36-   H71
    70     34     36     72      9     0.00   0.65084   3 ;    H70-   C34-   C36-   H72
    71     36     12     77      9     0.00   0.00000   0 ;    H71-   C36-   N12-   H77
    72     36     12     77      9     0.00   0.00000   0 ;    H72-   C36-   N12-   H77

[ dihedrals ] ; impropers
; treated as propers in GROMACS to use correct AMBER analytical function
;    i      j      k      l   func   phase     kd      pn
     1     23      9     15      4   180.00  43.93200   2 ;     O1-   C23-    N9-   C15
    12     13     37     14      4   180.00   4.60240   2 ;    N12-   N13-   C37-   N14
    17     10     27      4      4   180.00  43.93200   2 ;    C17-   N10-   C27-    O4
    23     28      9     56      4   180.00   4.60240   2 ;    C23-   C28-    N9-   H56
    24     15      7     19      4   180.00   4.60240   2 ;    C24-   C15-    N7-   C19
    25      7     24      2      4   180.00  43.93200   2 ;    C25-    N7-   C24-    O2
    26     17      8     22      4   180.00   4.60240   2 ;    C26-   C17-    N8-   C22
    27     30     10     57      4   180.00   4.60240   2 ;    C27-   C30-   N10-   H57
    28      8     26      3      4   180.00  43.93200   2 ;    C28-    N8-   C26-    O3
    30      5     35      6      4   180.00   4.60240   2 ;    C30-    O5-   C35-    O6
    36     37     12     77      4   180.00   4.60240   2 ;    C36-   C37-   N12-   H77
    37     73     13     74      4   180.00   4.60240   2 ;    C37-   H73-   N13-   H74
    37     75     14     76      4   180.00   4.60240   2 ;    C37-   H75-   N14-   H76
